 argument  1 = CH4.nw



============================== echo of input deck ==============================
echo "CH4"
start CH4

scratch_dir /tmp
permanent_dir .

memory total 250 Mb
geometry units angstrom
 symmetry c1
C         -0.38896        0.21209        0.00000
H          0.68104        0.21209        0.00000
H         -0.74562       -0.50729        0.70723
H         -0.74563       -0.04070       -0.97662
H         -0.74563        1.18426        0.26938
end

basis "ao basis" cartesian
 H library "6-311G**"
 C library "6-311G**"
end

charge 0

scf
    rhf
    singlet
    direct
    maxiter 100
end

task scf optimize
================================================================================


                                         
                                         


              Northwest Computational Chemistry Package (NWChem) 6.8
              ------------------------------------------------------


                    Environmental Molecular Sciences Laboratory
                       Pacific Northwest National Laboratory
                                Richland, WA 99352

                              Copyright (c) 1994-2017
                       Pacific Northwest National Laboratory
                            Battelle Memorial Institute

             NWChem is an open-source computational chemistry package
                        distributed under the terms of the
                      Educational Community License (ECL) 2.0
             A copy of the license is included with this distribution
                              in the LICENSE.TXT file

                                  ACKNOWLEDGMENT
                                  --------------

            This software and its documentation were developed at the
            EMSL at Pacific Northwest National Laboratory, a multiprogram
            national laboratory, operated for the U.S. Department of Energy
            by Battelle under Contract Number DE-AC05-76RL01830. Support
            for this work was provided by the Department of Energy Office
            of Biological and Environmental Research, Office of Basic
            Energy Sciences, and the Office of Advanced Scientific Computing.


           Job information
           ---------------

    hostname        = yodo.izt.uam.mx
    program         = nwchem
    date            = Sun Oct 25 15:51:37 2020

    compiled        = Sun_Jul_01_22:43:59_2018
    source          = /builddir/build/BUILD/nwchem-6.8.1
    nwchem branch   = 6.8.1
    nwchem revision = v6.8-133-ge032219
    ga revision     = 
    use scalapack   = T
    input           = CH4.nw
    prefix          = CH4.
    data base       = ./CH4.db
    status          = startup
    nproc           =        2
    time left       =     -1s



           Memory information
           ------------------

    heap     =    8191994 doubles =     62.5 Mbytes
    stack    =    8191999 doubles =     62.5 Mbytes
    global   =   16384000 doubles =    125.0 Mbytes (distinct from heap & stack)
    total    =   32767993 doubles =    250.0 Mbytes
    verify   = yes
    hardfail = no 


           Directory information
           ---------------------

  0 permanent = .
  0 scratch   = /tmp




                                NWChem Input Module
                                -------------------



 Scaling coordinates for geometry "geometry" by  1.889725989
 (inverse scale =  0.529177249)

 Turning off AUTOSYM since
 SYMMETRY directive was detected!


          ------
          auto-z
          ------
  Looking for out-of-plane bends


                             Geometry "geometry" -> ""
                             -------------------------

 Output coordinates in angstroms (scale by  1.889725989 to convert to a.u.)

  No.       Tag          Charge          X              Y              Z
 ---- ---------------- ---------- -------------- -------------- --------------
    1 C                    6.0000     0.00000000    -0.00000000     0.00000100
    2 H                    1.0000     1.07000000    -0.00000000     0.00000100
    3 H                    1.0000    -0.35666000    -0.71938000     0.70723100
    4 H                    1.0000    -0.35667000    -0.25279000    -0.97661900
    5 H                    1.0000    -0.35667000     0.97217000     0.26938100

      Atomic Mass 
      ----------- 

      C                 12.000000
      H                  1.007825


 Effective nuclear repulsion energy (a.u.)      13.6865418846

            Nuclear Dipole moment (a.u.) 
            ----------------------------
        X                 Y               Z
 ---------------- ---------------- ----------------
     0.0000000000    -0.0000000000     0.0000000000



                                Z-matrix (autoz)
                                -------- 

 Units are Angstrom for bonds and degrees for angles

      Type          Name      I     J     K     L     M      Value
      ----------- --------  ----- ----- ----- ----- ----- ----------
    1 Stretch                  1     2                       1.07000
    2 Stretch                  1     3                       1.06999
    3 Stretch                  1     4                       1.07000
    4 Stretch                  1     5                       1.07000
    5 Bend                     2     1     3               109.47095
    6 Bend                     2     1     4               109.47138
    7 Bend                     2     1     5               109.47147
    8 Bend                     3     1     4               109.47128
    9 Bend                     3     1     5               109.47153
   10 Bend                     4     1     5               109.47072


            XYZ format geometry
            -------------------
     5
 geometry
 C                     0.00000000    -0.00000000     0.00000100
 H                     1.07000000    -0.00000000     0.00000100
 H                    -0.35666000    -0.71938000     0.70723100
 H                    -0.35667000    -0.25279000    -0.97661900
 H                    -0.35667000     0.97217000     0.26938100

 ==============================================================================
                                internuclear distances
 ------------------------------------------------------------------------------
       center one      |      center two      | atomic units |  angstroms
 ------------------------------------------------------------------------------
    2 H                |   1 C                |     2.02201  |     1.07000
    3 H                |   1 C                |     2.02200  |     1.06999
    4 H                |   1 C                |     2.02201  |     1.07000
    5 H                |   1 C                |     2.02200  |     1.07000
 ------------------------------------------------------------------------------
                         number of included internuclear distances:          4
 ==============================================================================



 ==============================================================================
                                 internuclear angles
 ------------------------------------------------------------------------------
        center 1       |       center 2       |       center 3       |  degrees
 ------------------------------------------------------------------------------
    2 H                |   1 C                |   3 H                |   109.47
    2 H                |   1 C                |   4 H                |   109.47
    2 H                |   1 C                |   5 H                |   109.47
    3 H                |   1 C                |   4 H                |   109.47
    3 H                |   1 C                |   5 H                |   109.47
    4 H                |   1 C                |   5 H                |   109.47
 ------------------------------------------------------------------------------
                            number of included internuclear angles:          6
 ==============================================================================



  library name resolved from: environment
  library file name is: </usr/share/nwchem/libraries/>
  
                      Basis "ao basis" -> "" (cartesian)
                      -----
  H (Hydrogen)
  ------------
            Exponent  Coefficients 
       -------------- ---------------------------------------------------------
  1 S  3.38650000E+01  0.025494
  1 S  5.09479000E+00  0.190373
  1 S  1.15879000E+00  0.852161

  2 S  3.25840000E-01  1.000000

  3 S  1.02741000E-01  1.000000

  4 P  7.50000000E-01  1.000000

  C (Carbon)
  ----------
            Exponent  Coefficients 
       -------------- ---------------------------------------------------------
  1 S  4.56324000E+03  0.001967
  1 S  6.82024000E+02  0.015231
  1 S  1.54973000E+02  0.076127
  1 S  4.44553000E+01  0.260801
  1 S  1.30290000E+01  0.616462
  1 S  1.82773000E+00  0.221006

  2 S  2.09642000E+01  0.114660
  2 S  4.80331000E+00  0.919999
  2 S  1.45933000E+00 -0.003031

  3 P  2.09642000E+01  0.040249
  3 P  4.80331000E+00  0.237594
  3 P  1.45933000E+00  0.815854

  4 S  4.83456000E-01  1.000000

  5 P  4.83456000E-01  1.000000

  6 S  1.45585000E-01  1.000000

  7 P  1.45585000E-01  1.000000

  8 D  6.26000000E-01  1.000000



 Summary of "ao basis" -> "" (cartesian)
 ------------------------------------------------------------------------------
       Tag                 Description            Shells   Functions and Types
 ---------------- ------------------------------  ------  ---------------------
 H                          6-311G**                 4        6   3s1p
 C                          6-311G**                 8       19   4s3p1d




                           NWChem Geometry Optimization
                           ----------------------------


 maximum gradient threshold         (gmax) =   0.000450
 rms gradient threshold             (grms) =   0.000300
 maximum cartesian step threshold   (xmax) =   0.001800
 rms cartesian step threshold       (xrms) =   0.001200
 fixed trust radius                (trust) =   0.300000
 maximum step size to saddle      (sadstp) =   0.100000
 energy precision                  (eprec) =   1.0D-07
 maximum number of steps          (nptopt) =   20
 initial hessian option           (inhess) =    0
 line search option               (linopt) =    1
 hessian update option            (modupd) =    1
 saddle point option              (modsad) =    0
 initial eigen-mode to follow     (moddir) =    0
 initial variable to follow       (vardir) =    0
 follow first negative mode     (firstneg) =    T
 apply conjugacy                    (opcg) =    F
 source of zmatrix                         =   autoz   


          -------------------
          Energy Minimization
          -------------------


 Names of Z-matrix variables 
    1              2              3              4              5         
    6              7              8              9             10         

 Variables with the same non-blank name are constrained to be equal


 Using diagonal initial Hessian 
 Scaling for Hessian diagonals: bonds = 1.00  angles = 0.25  torsions = 0.10

          --------
          Step   0
          --------


                         Geometry "geometry" -> "geometry"
                         ---------------------------------

 Output coordinates in angstroms (scale by  1.889725989 to convert to a.u.)

  No.       Tag          Charge          X              Y              Z
 ---- ---------------- ---------- -------------- -------------- --------------
    1 C                    6.0000     0.00000000    -0.00000000     0.00000100
    2 H                    1.0000     1.07000000    -0.00000000     0.00000100
    3 H                    1.0000    -0.35666000    -0.71938000     0.70723100
    4 H                    1.0000    -0.35667000    -0.25279000    -0.97661900
    5 H                    1.0000    -0.35667000     0.97217000     0.26938100

      Atomic Mass 
      ----------- 

      C                 12.000000
      H                  1.007825


 Effective nuclear repulsion energy (a.u.)      13.6865418846

            Nuclear Dipole moment (a.u.) 
            ----------------------------
        X                 Y               Z
 ---------------- ---------------- ----------------
     0.0000000000    -0.0000000000     0.0000000000

                                 NWChem SCF Module
                                 -----------------



  ao basis        = "ao basis"
  functions       =    43
  atoms           =     5
  closed shells   =     5
  open shells     =     0
  charge          =   0.00
  wavefunction    = RHF 
  input vectors   = atomic
  output vectors  = ./CH4.movecs
  use symmetry    = F
  symmetry adapt  = F


 Summary of "ao basis" -> "ao basis" (cartesian)
 ------------------------------------------------------------------------------
       Tag                 Description            Shells   Functions and Types
 ---------------- ------------------------------  ------  ---------------------
 H                          6-311G**                 4        6   3s1p
 C                          6-311G**                 8       19   4s3p1d



 Forming initial guess at       0.1s


      Superposition of Atomic Density Guess
      -------------------------------------

 Sum of atomic energies:         -39.66778975

      Non-variational initial energy
      ------------------------------

 Total energy =     -40.303999
 1-e energy   =     -78.683821
 2-e energy   =      24.693279
 HOMO         =      -0.531633
 LUMO         =       0.093035


 Starting SCF solution at       0.2s



 ----------------------------------------------
         Quadratically convergent ROHF

 Convergence threshold     :          1.000E-04
 Maximum no. of iterations :          100
 Final Fock-matrix accuracy:          1.000E-07
 ----------------------------------------------


              iter       energy          gnorm     gmax       time
             ----- ------------------- --------- --------- --------
                 1      -40.1952959057  4.26D-01  2.37D-01      0.1
                 2      -40.2071644628  1.26D-01  3.20D-02      0.2
                 3      -40.2084621348  3.81D-03  2.02D-03      0.3
                 4      -40.2084639577  1.32D-05  4.88D-06      0.5


       Final RHF  results 
       ------------------ 

         Total SCF energy =    -40.208463957721
      One-electron energy =    -80.193269023989
      Two-electron energy =     26.298263181647
 Nuclear repulsion energy =     13.686541884621

        Time for solution =      0.4s


             Final eigenvalues
             -----------------

              1      
    1  -11.1980
    2   -0.9510
    3   -0.5498
    4   -0.5498
    5   -0.5498
    6    0.1600
    7    0.2385
    8    0.2385
    9    0.2385
   10    0.4292
   11    0.4292
   12    0.4292
   13    0.7674
   14    0.8211
   15    0.8211

                       ROHF Final Molecular Orbital Analysis
                       -------------------------------------

 Vector    2  Occ=2.000000D+00  E=-9.510153D-01
              MO Center= -1.7D-06, -4.6D-07,  2.8D-06, r^2= 9.9D-01
   Bfn.  Coefficient  Atom+Function         Bfn.  Coefficient  Atom+Function  
  ----- ------------  ---------------      ----- ------------  ---------------
     6      0.421446  1 C  s                 10      0.256874  1 C  s          
     2     -0.170387  1 C  s          

 Vector    3  Occ=2.000000D+00  E=-5.497890D-01
              MO Center= -1.3D-01,  1.8D-02,  1.6D-01, r^2= 1.3D+00
   Bfn.  Coefficient  Atom+Function         Bfn.  Coefficient  Atom+Function  
  ----- ------------  ---------------      ----- ------------  ---------------
     8      0.245664  1 C  py                27     -0.210321  3 H  s          
    39      0.196899  5 H  s                 12      0.159236  1 C  py         
     4      0.157160  1 C  py         

 Vector    4  Occ=2.000000D+00  E=-5.497867D-01
              MO Center=  2.9D-01, -8.4D-02,  9.7D-02, r^2= 1.2D+00
   Bfn.  Coefficient  Atom+Function         Bfn.  Coefficient  Atom+Function  
  ----- ------------  ---------------      ----- ------------  ---------------
     7      0.282354  1 C  px                21      0.256891  2 H  s          
    11      0.183019  1 C  px                 3      0.180631  1 C  px         
    27     -0.167542  3 H  s                 20      0.165094  2 H  s          

 Vector    5  Occ=2.000000D+00  E=-5.497856D-01
              MO Center= -1.6D-01,  6.6D-02, -2.6D-01, r^2= 1.2D+00
   Bfn.  Coefficient  Atom+Function         Bfn.  Coefficient  Atom+Function  
  ----- ------------  ---------------      ----- ------------  ---------------
    33     -0.252984  4 H  s                  9      0.248576  1 C  pz         
    39      0.177818  5 H  s                 32     -0.162583  4 H  s          
     8      0.160757  1 C  py                13      0.161124  1 C  pz         
     5      0.159022  1 C  pz         

 Vector    6  Occ=0.000000D+00  E= 1.600092D-01
              MO Center= -9.0D-07, -6.6D-07, -1.3D-06, r^2= 5.4D+00
   Bfn.  Coefficient  Atom+Function         Bfn.  Coefficient  Atom+Function  
  ----- ------------  ---------------      ----- ------------  ---------------
    10      2.365666  1 C  s                 22     -0.824580  2 H  s          
    28     -0.824582  3 H  s                 34     -0.824579  4 H  s          
    40     -0.824580  5 H  s          

 Vector    7  Occ=0.000000D+00  E= 2.385375D-01
              MO Center=  4.5D-01,  2.0D-02, -3.3D-01, r^2= 5.5D+00
   Bfn.  Coefficient  Atom+Function         Bfn.  Coefficient  Atom+Function  
  ----- ------------  ---------------      ----- ------------  ---------------
    22      1.873322  2 H  s                 34     -1.566655  4 H  s          
    40     -1.095026  5 H  s                 11     -0.880799  1 C  px         
    28      0.788362  3 H  s                 13     -0.590777  1 C  pz         
    12      0.407223  1 C  py                21     -0.177318  2 H  s          

 Vector    8  Occ=0.000000D+00  E= 2.385378D-01
              MO Center= -4.7D-01,  4.9D-01,  7.3D-02, r^2= 5.3D+00
   Bfn.  Coefficient  Atom+Function         Bfn.  Coefficient  Atom+Function  
  ----- ------------  ---------------      ----- ------------  ---------------
    40      2.026775  5 H  s                 34     -1.361857  4 H  s          
    28     -1.227129  3 H  s                 12     -1.053751  1 C  py         
    22      0.562212  2 H  s                 13     -0.332245  1 C  pz         
    11     -0.264338  1 C  px                39     -0.191844  5 H  s          

 Vector    9  Occ=0.000000D+00  E= 2.385379D-01
              MO Center=  1.9D-02, -5.1D-01,  2.6D-01, r^2= 5.5D+00
   Bfn.  Coefficient  Atom+Function         Bfn.  Coefficient  Atom+Function  
  ----- ------------  ---------------      ----- ------------  ---------------
    28      1.926389  3 H  s                 22     -1.418748  2 H  s          
    34     -1.236603  4 H  s                 13     -0.911728  1 C  pz         
    40      0.728974  5 H  s                 11      0.667063  1 C  px         
    27     -0.182343  3 H  s          

 Vector   10  Occ=0.000000D+00  E= 4.291695D-01
              MO Center=  1.5D-01, -9.6D-02,  1.7D-01, r^2= 2.7D+00
   Bfn.  Coefficient  Atom+Function         Bfn.  Coefficient  Atom+Function  
  ----- ------------  ---------------      ----- ------------  ---------------
    13      1.373513  1 C  pz                33      1.202073  4 H  s          
    39     -1.028919  5 H  s                 12      0.845680  1 C  py         
    27     -0.355624  3 H  s                 11     -0.209997  1 C  px         
    21      0.182464  2 H  s          

 Vector   11  Occ=0.000000D+00  E= 4.291700D-01
              MO Center= -1.9D-01,  1.3D-01, -1.1D-01, r^2= 2.7D+00
   Bfn.  Coefficient  Atom+Function         Bfn.  Coefficient  Atom+Function  
  ----- ------------  ---------------      ----- ------------  ---------------
    11      1.394491  1 C  px                21     -1.211672  2 H  s          
    27      1.023516  3 H  s                 12      0.791305  1 C  py         
    33      0.349025  4 H  s                 13     -0.274011  1 C  pz         
    39     -0.160865  5 H  s          

 Vector   12  Occ=0.000000D+00  E= 4.291714D-01
              MO Center=  4.0D-02, -3.1D-02, -6.8D-02, r^2= 2.7D+00
   Bfn.  Coefficient  Atom+Function         Bfn.  Coefficient  Atom+Function  
  ----- ------------  ---------------      ----- ------------  ---------------
    12      1.142172  1 C  py                39     -0.955526  5 H  s          
    27      0.907490  3 H  s                 13     -0.827179  1 C  pz         
    11     -0.810652  1 C  px                21      0.704367  2 H  s          
    33     -0.656327  4 H  s          

 Vector   13  Occ=0.000000D+00  E= 7.673825D-01
              MO Center=  8.5D-06,  2.4D-06, -1.8D-05, r^2= 2.5D+00
   Bfn.  Coefficient  Atom+Function         Bfn.  Coefficient  Atom+Function  
  ----- ------------  ---------------      ----- ------------  ---------------
    10      1.539386  1 C  s                 21     -1.217328  2 H  s          
    27     -1.217320  3 H  s                 33     -1.217332  4 H  s          
    39     -1.217324  5 H  s                  6      0.611786  1 C  s          
    22      0.240637  2 H  s                 28      0.240563  3 H  s          
    34      0.240638  4 H  s                 40      0.240594  5 H  s          

 Vector   14  Occ=0.000000D+00  E= 8.211419D-01
              MO Center= -5.3D-02, -2.6D-02, -3.1D-01, r^2= 2.5D+00
   Bfn.  Coefficient  Atom+Function         Bfn.  Coefficient  Atom+Function  
  ----- ------------  ---------------      ----- ------------  ---------------
    34      1.748269  4 H  s                 13      1.293459  1 C  pz         
    22     -0.874333  2 H  s                  9     -0.813365  1 C  pz         
    11      0.807836  1 C  px                40     -0.749647  5 H  s          
    12      0.700289  1 C  py                33     -0.605345  4 H  s          
     7     -0.507991  1 C  px                 8     -0.440364  1 C  py         

 Vector   15  Occ=0.000000D+00  E= 8.211429D-01
              MO Center=  2.3D-01,  7.8D-02,  7.4D-02, r^2= 2.6D+00
   Bfn.  Coefficient  Atom+Function         Bfn.  Coefficient  Atom+Function  
  ----- ------------  ---------------      ----- ------------  ---------------
    22     -1.591868  2 H  s                 11      1.470797  1 C  px         
    40      1.090656  5 H  s                  7     -0.924884  1 C  px         
    28      0.774616  3 H  s                 13     -0.717973  1 C  pz         
    21      0.551182  2 H  s                  9      0.451486  1 C  pz         
    39     -0.377684  5 H  s                 12     -0.370549  1 C  py         


 center of mass
 --------------
 x =   0.00000000 y =  -0.00000000 z =   0.00000070

 moments of inertia (a.u.)
 ------------------
          10.987955930428           0.000025890543          -0.000038289845
           0.000025890543          10.987986363639           0.000015090640
          -0.000038289845           0.000015090640          10.987980589773

  Mulliken analysis of the total density
  --------------------------------------

    Atom       Charge   Shell Charges
 -----------   ------   -------------------------------------------------------
    1 C    6     6.35   1.10  0.89  0.61  0.70  1.56  0.48  0.96  0.04
    2 H    1     0.91   0.27  0.52  0.10  0.03
    3 H    1     0.91   0.27  0.52  0.10  0.03
    4 H    1     0.91   0.27  0.52  0.10  0.03
    5 H    1     0.91   0.27  0.52  0.10  0.03

       Multipole analysis of the density wrt the origin
       ------------------------------------------------

     L   x y z        total         open         nuclear
     -   - - -        -----         ----         -------
     0   0 0 0      0.000000      0.000000     10.000000

     1   1 0 0     -0.000001      0.000000      0.000000
     1   0 1 0     -0.000000      0.000000     -0.000000
     1   0 0 1      0.000001      0.000000      0.000000

     2   2 0 0     -6.212663      0.000000      5.451349
     2   1 1 0     -0.000008      0.000000     -0.000026
     2   1 0 1      0.000008      0.000000      0.000038
     2   0 2 0     -6.212664      0.000000      5.451319
     2   0 1 1     -0.000010      0.000000     -0.000015
     2   0 0 2     -6.212671      0.000000      5.451324

                              NWChem Gradients Module
                              -----------------------



  wavefunction    =   RHF     



                         RHF ENERGY GRADIENTS

    atom               coordinates                        gradient
                 x          y          z           x          y          z
   1 C       0.000000  -0.000000   0.000002   -0.000001  -0.000000   0.000004
   2 H       2.022007  -0.000000   0.000002   -0.010549  -0.000001   0.000000
   3 H      -0.673990  -1.359431   1.336473    0.003518   0.007095  -0.006975
   4 H      -0.674009  -0.477704  -1.845542    0.003516   0.002493   0.009628
   5 H      -0.674009   1.837135   0.509056    0.003517  -0.009586  -0.002657

                 ----------------------------------------
                 |  Time  |  1-e(secs)   |  2-e(secs)   |
                 ----------------------------------------
                 |  CPU   |       0.00   |       0.14   |
                 ----------------------------------------
                 |  WALL  |       0.00   |       0.26   |
                 ----------------------------------------

@ Step       Energy      Delta E   Gmax     Grms     Xrms     Xmax   Walltime
@ ---- ---------------- -------- -------- -------- -------- -------- --------
@    0     -40.20846396  0.0D+00  0.01055  0.00667  0.00000  0.00000      1.2
                                                                    



                                Z-matrix (autoz)
                                -------- 

 Units are Angstrom for bonds and degrees for angles

      Type          Name      I     J     K     L     M      Value     Gradient
      ----------- --------  ----- ----- ----- ----- ----- ---------- ----------
    1 Stretch                  1     2                       1.07000   -0.01055
    2 Stretch                  1     3                       1.06999   -0.01055
    3 Stretch                  1     4                       1.07000   -0.01055
    4 Stretch                  1     5                       1.07000   -0.01055
    5 Bend                     2     1     3               109.47095   -0.00000
    6 Bend                     2     1     4               109.47138    0.00000
    7 Bend                     2     1     5               109.47147    0.00000
    8 Bend                     3     1     4               109.47128    0.00000
    9 Bend                     3     1     5               109.47153    0.00000
   10 Bend                     4     1     5               109.47072   -0.00000

                                 NWChem SCF Module
                                 -----------------



  ao basis        = "ao basis"
  functions       =    43
  atoms           =     5
  closed shells   =     5
  open shells     =     0
  charge          =   0.00
  wavefunction    = RHF 
  input vectors   = ./CH4.movecs
  output vectors  = ./CH4.movecs
  use symmetry    = F
  symmetry adapt  = F


 Summary of "ao basis" -> "ao basis" (cartesian)
 ------------------------------------------------------------------------------
       Tag                 Description            Shells   Functions and Types
 ---------------- ------------------------------  ------  ---------------------
 H                          6-311G**                 4        6   3s1p
 C                          6-311G**                 8       19   4s3p1d



 Forming initial guess at       1.2s


 Loading old vectors from job with title :




 Starting SCF solution at       1.2s



 ----------------------------------------------
         Quadratically convergent ROHF

 Convergence threshold     :          1.000E-04
 Maximum no. of iterations :          100
 Final Fock-matrix accuracy:          1.000E-07
 ----------------------------------------------


              iter       energy          gnorm     gmax       time
             ----- ------------------- --------- --------- --------
                 1      -40.2088624593  5.53D-02  2.22D-02      0.7
                 2      -40.2090188929  1.54D-03  8.96D-04      0.8
                 3      -40.2090190859  8.12D-06  3.35D-06      1.0


       Final RHF  results 
       ------------------ 

         Total SCF energy =    -40.209019085870
      One-electron energy =    -79.824937746917
      Two-electron energy =     26.124857579035
 Nuclear repulsion energy =     13.491061082012

        Time for solution =      0.4s


             Final eigenvalues
             -----------------

              1      
    1  -11.2058
    2   -0.9445
    3   -0.5458
    4   -0.5458
    5   -0.5458
    6    0.1587
    7    0.2374
    8    0.2374
    9    0.2374
   10    0.4275
   11    0.4275
   12    0.4275
   13    0.7509
   14    0.8140
   15    0.8140

                       ROHF Final Molecular Orbital Analysis
                       -------------------------------------

 Vector    2  Occ=2.000000D+00  E=-9.444977D-01
              MO Center=  1.7D-07,  2.6D-07, -1.4D-06, r^2= 1.0D+00
   Bfn.  Coefficient  Atom+Function         Bfn.  Coefficient  Atom+Function  
  ----- ------------  ---------------      ----- ------------  ---------------
     6      0.423395  1 C  s                 10      0.262973  1 C  s          
     2     -0.169809  1 C  s          

 Vector    3  Occ=2.000000D+00  E=-5.457705D-01
              MO Center= -1.6D-01, -2.0D-02,  2.1D-01, r^2= 1.2D+00
   Bfn.  Coefficient  Atom+Function         Bfn.  Coefficient  Atom+Function  
  ----- ------------  ---------------      ----- ------------  ---------------
     8      0.256147  1 C  py                27     -0.231591  3 H  s          
    39      0.192705  5 H  s                 12      0.167933  1 C  py         
     4      0.162825  1 C  py         

 Vector    4  Occ=2.000000D+00  E=-5.457703D-01
              MO Center=  3.1D-01, -1.7D-02,  8.2D-02, r^2= 1.2D+00
   Bfn.  Coefficient  Atom+Function         Bfn.  Coefficient  Atom+Function  
  ----- ------------  ---------------      ----- ------------  ---------------
     7      0.285800  1 C  px                21      0.261037  2 H  s          
    11      0.187372  1 C  px                 3      0.181673  1 C  px         
    20      0.166122  2 H  s          

 Vector    5  Occ=2.000000D+00  E=-5.457700D-01
              MO Center= -1.4D-01,  3.7D-02, -2.9D-01, r^2= 1.2D+00
   Bfn.  Coefficient  Atom+Function         Bfn.  Coefficient  Atom+Function  
  ----- ------------  ---------------      ----- ------------  ---------------
    33     -0.259718  4 H  s                  9      0.245905  1 C  pz         
    32     -0.165282  4 H  s                 13      0.161218  1 C  pz         
    39      0.161153  5 H  s                  5      0.156314  1 C  pz         
     8      0.152374  1 C  py         

 Vector    6  Occ=0.000000D+00  E= 1.586930D-01
              MO Center=  1.9D-09,  9.3D-06,  5.9D-06, r^2= 5.4D+00
   Bfn.  Coefficient  Atom+Function         Bfn.  Coefficient  Atom+Function  
  ----- ------------  ---------------      ----- ------------  ---------------
    10      2.327097  1 C  s                 22     -0.817125  2 H  s          
    28     -0.817121  3 H  s                 34     -0.817113  4 H  s          
    40     -0.817142  5 H  s          

 Vector    7  Occ=0.000000D+00  E= 2.373835D-01
              MO Center=  2.8D-01, -2.7D-01, -7.9D-01, r^2= 5.0D+00
   Bfn.  Coefficient  Atom+Function         Bfn.  Coefficient  Atom+Function  
  ----- ------------  ---------------      ----- ------------  ---------------
    34      2.041424  4 H  s                 22     -1.679203  2 H  s          
    11      0.804741  1 C  px                13      0.797559  1 C  pz         
    28     -0.646291  3 H  s                 40      0.284078  5 H  s          
    33     -0.183391  4 H  s                 21      0.150868  2 H  s          

 Vector    8  Occ=0.000000D+00  E= 2.373854D-01
              MO Center= -5.6D-01,  5.9D-01,  4.9D-01, r^2= 4.9D+00
   Bfn.  Coefficient  Atom+Function         Bfn.  Coefficient  Atom+Function  
  ----- ------------  ---------------      ----- ------------  ---------------
    40      2.168216  5 H  s                 28     -1.500473  3 H  s          
    12     -1.132441  1 C  py                34     -0.727567  4 H  s          
    39     -0.194796  5 H  s          

 Vector    9  Occ=0.000000D+00  E= 2.373873D-01
              MO Center=  2.8D-01, -3.2D-01,  3.0D-01, r^2= 5.5D+00
   Bfn.  Coefficient  Atom+Function         Bfn.  Coefficient  Atom+Function  
  ----- ------------  ---------------      ----- ------------  ---------------
    28     -1.716107  3 H  s                 22      1.670580  2 H  s          
    34      0.957808  4 H  s                 40     -0.912273  5 H  s          
    11     -0.800602  1 C  px                13      0.804452  1 C  pz         
    27      0.154195  3 H  s                 21     -0.150087  2 H  s          

 Vector   10  Occ=0.000000D+00  E= 4.275476D-01
              MO Center= -1.1D-01,  1.5D-01, -1.6D-01, r^2= 2.7D+00
   Bfn.  Coefficient  Atom+Function         Bfn.  Coefficient  Atom+Function  
  ----- ------------  ---------------      ----- ------------  ---------------
    11      1.193336  1 C  px                27      1.177639  3 H  s          
    21     -1.055543  2 H  s                 12      0.909273  1 C  py         
    13     -0.487601  1 C  pz                39     -0.270317  5 H  s          

 Vector   11  Occ=0.000000D+00  E= 4.275479D-01
              MO Center=  1.5D-01, -7.2D-02,  1.9D-01, r^2= 2.7D+00
   Bfn.  Coefficient  Atom+Function         Bfn.  Coefficient  Atom+Function  
  ----- ------------  ---------------      ----- ------------  ---------------
    13      1.352566  1 C  pz                33      1.242222  4 H  s          
    39     -0.970513  5 H  s                 12      0.809342  1 C  py         
    27     -0.328341  3 H  s          

 Vector   12  Occ=0.000000D+00  E= 4.275488D-01
              MO Center= -4.2D-02, -7.8D-02, -3.2D-02, r^2= 2.8D+00
   Bfn.  Coefficient  Atom+Function         Bfn.  Coefficient  Atom+Function  
  ----- ------------  ---------------      ----- ------------  ---------------
    11      1.029771  1 C  px                12     -1.003379  1 C  py         
    39      0.965436  5 H  s                 21     -0.910848  2 H  s          
    27     -0.672581  3 H  s                 13      0.649140  1 C  pz         
    33      0.618016  4 H  s          

 Vector   13  Occ=0.000000D+00  E= 7.509432D-01
              MO Center= -5.1D-07, -3.6D-06,  7.9D-06, r^2= 2.5D+00
   Bfn.  Coefficient  Atom+Function         Bfn.  Coefficient  Atom+Function  
  ----- ------------  ---------------      ----- ------------  ---------------
    10      1.323168  1 C  s                 21     -1.163714  2 H  s          
    27     -1.163713  3 H  s                 33     -1.163713  4 H  s          
    39     -1.163716  5 H  s                  6      0.602537  1 C  s          
    22      0.267554  2 H  s                 28      0.267569  3 H  s          
    34      0.267541  4 H  s                 40      0.267560  5 H  s          

 Vector   14  Occ=0.000000D+00  E= 8.139910D-01
              MO Center=  7.8D-02, -6.0D-02,  3.5D-02, r^2= 2.6D+00
   Bfn.  Coefficient  Atom+Function         Bfn.  Coefficient  Atom+Function  
  ----- ------------  ---------------      ----- ------------  ---------------
    22     -1.245277  2 H  s                 12      1.191348  1 C  py         
    11      1.174650  1 C  px                28      1.138274  3 H  s          
    34      0.887328  4 H  s                 40     -0.780379  5 H  s          
     8     -0.737489  1 C  py                 7     -0.727152  1 C  px         
    21      0.415560  2 H  s                 27     -0.379884  3 H  s          

 Vector   15  Occ=0.000000D+00  E= 8.139925D-01
              MO Center= -1.7D-01, -2.0D-01, -1.2D-01, r^2= 2.6D+00
   Bfn.  Coefficient  Atom+Function         Bfn.  Coefficient  Atom+Function  
  ----- ------------  ---------------      ----- ------------  ---------------
    13      1.671334  1 C  pz                34      1.546425  4 H  s          
    28     -1.325733  3 H  s                  9     -1.034612  1 C  pz         
    33     -0.516066  4 H  s                 27      0.442429  3 H  s          
    40     -0.296605  5 H  s                  5     -0.252543  1 C  pz         
    12     -0.181452  1 C  py         


 center of mass
 --------------
 x =   0.00000002 y =   0.00000001 z =  -0.00000126

 moments of inertia (a.u.)
 ------------------
          11.308706854683           0.000004165953          -0.000001463319
           0.000004165953          11.308699582786           0.000009230642
          -0.000001463319           0.000009230642          11.308708875326

  Mulliken analysis of the total density
  --------------------------------------

    Atom       Charge   Shell Charges
 -----------   ------   -------------------------------------------------------
    1 C    6     6.36   1.10  0.89  0.60  0.70  1.55  0.49  0.98  0.04
    2 H    1     0.91   0.27  0.52  0.10  0.03
    3 H    1     0.91   0.27  0.52  0.10  0.03
    4 H    1     0.91   0.27  0.52  0.10  0.03
    5 H    1     0.91   0.27  0.52  0.10  0.03

       Multipole analysis of the density wrt the origin
       ------------------------------------------------

     L   x y z        total         open         nuclear
     -   - - -        -----         ----         -------
     0   0 0 0     -0.000000      0.000000     10.000000

     1   1 0 0      0.000000      0.000000      0.000000
     1   0 1 0      0.000001      0.000000      0.000000
     1   0 0 1     -0.000001      0.000000     -0.000014

     2   2 0 0     -6.250277      0.000000      5.610449
     2   1 1 0     -0.000004      0.000000     -0.000004
     2   1 0 1      0.000002      0.000000      0.000001
     2   0 2 0     -6.250274      0.000000      5.610456
     2   0 1 1     -0.000000      0.000000     -0.000009
     2   0 0 2     -6.250279      0.000000      5.610447

 Line search: 
     step= 1.00 grad=-1.2D-03 hess= 6.8D-04 energy=    -40.209019 mode=accept  
 new step= 1.00                   predicted energy=    -40.209019

          --------
          Step   1
          --------


                         Geometry "geometry" -> "geometry"
                         ---------------------------------

 Output coordinates in angstroms (scale by  1.889725989 to convert to a.u.)

  No.       Tag          Charge          X              Y              Z
 ---- ---------------- ---------- -------------- -------------- --------------
    1 C                    6.0000     0.00000001     0.00000001    -0.00000052
    2 H                    1.0000     1.08550194     0.00000216    -0.00000223
    3 H                    1.0000    -0.36183108    -0.72980505     0.71747991
    4 H                    1.0000    -0.36183455    -0.25645452    -0.99076864
    5 H                    1.0000    -0.36183632     0.98625740     0.27328647

      Atomic Mass 
      ----------- 

      C                 12.000000
      H                  1.007825


 Effective nuclear repulsion energy (a.u.)      13.4910610820

            Nuclear Dipole moment (a.u.) 
            ----------------------------
        X                 Y               Z
 ---------------- ---------------- ----------------
     0.0000001378     0.0000000673    -0.0000143207

                                 NWChem SCF Module
                                 -----------------



  ao basis        = "ao basis"
  functions       =    43
  atoms           =     5
  closed shells   =     5
  open shells     =     0
  charge          =   0.00
  wavefunction    = RHF 
  input vectors   = ./CH4.movecs
  output vectors  = ./CH4.movecs
  use symmetry    = F
  symmetry adapt  = F


 Summary of "ao basis" -> "ao basis" (cartesian)
 ------------------------------------------------------------------------------
       Tag                 Description            Shells   Functions and Types
 ---------------- ------------------------------  ------  ---------------------
 H                          6-311G**                 4        6   3s1p
 C                          6-311G**                 8       19   4s3p1d



  The SCF is already converged 

         Total SCF energy =    -40.209019085870

                              NWChem Gradients Module
                              -----------------------



  wavefunction    =   RHF     



                         RHF ENERGY GRADIENTS

    atom               coordinates                        gradient
                 x          y          z           x          y          z
   1 C       0.000000   0.000000  -0.000001    0.000000   0.000000   0.000000
   2 H       2.051301   0.000004  -0.000004    0.000919  -0.000000   0.000000
   3 H      -0.683762  -1.379132   1.355840   -0.000307  -0.000618   0.000608
   4 H      -0.683768  -0.484629  -1.872281   -0.000306  -0.000217  -0.000839
   5 H      -0.683772   1.863756   0.516437   -0.000306   0.000835   0.000231

                 ----------------------------------------
                 |  Time  |  1-e(secs)   |  2-e(secs)   |
                 ----------------------------------------
                 |  CPU   |       0.00   |       0.13   |
                 ----------------------------------------
                 |  WALL  |       0.00   |       0.24   |
                 ----------------------------------------

  Step       Energy      Delta E   Gmax     Grms     Xrms     Xmax   Walltime
  ---- ---------------- -------- -------- -------- -------- -------- --------
@    1     -40.20901909 -5.6D-04  0.00092  0.00058  0.01513  0.02929      2.2
                                                                    



                                Z-matrix (autoz)
                                -------- 

 Units are Angstrom for bonds and degrees for angles

      Type          Name      I     J     K     L     M      Value     Gradient
      ----------- --------  ----- ----- ----- ----- ----- ---------- ----------
    1 Stretch                  1     2                       1.08550    0.00092
    2 Stretch                  1     3                       1.08550    0.00092
    3 Stretch                  1     4                       1.08550    0.00092
    4 Stretch                  1     5                       1.08550    0.00092
    5 Bend                     2     1     3               109.47120    0.00000
    6 Bend                     2     1     4               109.47119   -0.00000
    7 Bend                     2     1     5               109.47126    0.00000
    8 Bend                     3     1     4               109.47123    0.00000
    9 Bend                     3     1     5               109.47133    0.00000
   10 Bend                     4     1     5               109.47110   -0.00000

                                 NWChem SCF Module
                                 -----------------



  ao basis        = "ao basis"
  functions       =    43
  atoms           =     5
  closed shells   =     5
  open shells     =     0
  charge          =   0.00
  wavefunction    = RHF 
  input vectors   = ./CH4.movecs
  output vectors  = ./CH4.movecs
  use symmetry    = F
  symmetry adapt  = F


 Summary of "ao basis" -> "ao basis" (cartesian)
 ------------------------------------------------------------------------------
       Tag                 Description            Shells   Functions and Types
 ---------------- ------------------------------  ------  ---------------------
 H                          6-311G**                 4        6   3s1p
 C                          6-311G**                 8       19   4s3p1d



 Forming initial guess at       2.2s


 Loading old vectors from job with title :




 Starting SCF solution at       2.2s



 ----------------------------------------------
         Quadratically convergent ROHF

 Convergence threshold     :          1.000E-04
 Maximum no. of iterations :          100
 Final Fock-matrix accuracy:          1.000E-07
 ----------------------------------------------


              iter       energy          gnorm     gmax       time
             ----- ------------------- --------- --------- --------
                 1      -40.2090225896  4.37D-03  1.74D-03      1.2
                 2      -40.2090235754  1.43D-05  8.35D-06      1.3


       Final RHF  results 
       ------------------ 

         Total SCF energy =    -40.209023575443
      One-electron energy =    -79.854164735535
      Two-electron energy =     26.138618881779
 Nuclear repulsion energy =     13.506522278313

        Time for solution =      0.2s


             Final eigenvalues
             -----------------

              1      
    1  -11.2052
    2   -0.9450
    3   -0.5461
    4   -0.5461
    5   -0.5461
    6    0.1588
    7    0.2375
    8    0.2375
    9    0.2375
   10    0.4277
   11    0.4277
   12    0.4277
   13    0.7523
   14    0.8146
   15    0.8146

                       ROHF Final Molecular Orbital Analysis
                       -------------------------------------

 Vector    2  Occ=2.000000D+00  E=-9.450153D-01
              MO Center=  1.3D-08,  1.6D-07, -1.1D-06, r^2= 1.0D+00
   Bfn.  Coefficient  Atom+Function         Bfn.  Coefficient  Atom+Function  
  ----- ------------  ---------------      ----- ------------  ---------------
     6      0.423243  1 C  s                 10      0.262488  1 C  s          
     2     -0.169853  1 C  s          

 Vector    3  Occ=2.000000D+00  E=-5.460899D-01
              MO Center= -5.2D-02, -2.3D-01,  2.5D-01, r^2= 1.2D+00
   Bfn.  Coefficient  Atom+Function         Bfn.  Coefficient  Atom+Function  
  ----- ------------  ---------------      ----- ------------  ---------------
    27      0.267705  3 H  s                  8     -0.200302  1 C  py         
    26      0.170501  3 H  s                  9      0.167058  1 C  pz         

 Vector    4  Occ=2.000000D+00  E=-5.460898D-01
              MO Center=  1.1D-01,  2.8D-01,  7.9D-02, r^2= 1.2D+00
   Bfn.  Coefficient  Atom+Function         Bfn.  Coefficient  Atom+Function  
  ----- ------------  ---------------      ----- ------------  ---------------
    39      0.241133  5 H  s                  7     -0.218248  1 C  px         
    21     -0.199270  2 H  s                  8      0.197307  1 C  py         
    38      0.153578  5 H  s          

 Vector    5  Occ=2.000000D+00  E=-5.460895D-01
              MO Center= -5.5D-02, -5.3D-02, -3.3D-01, r^2= 1.2D+00
   Bfn.  Coefficient  Atom+Function         Bfn.  Coefficient  Atom+Function  
  ----- ------------  ---------------      ----- ------------  ---------------
    33      0.266664  4 H  s                  9     -0.242186  1 C  pz         
    32      0.169838  4 H  s                 13     -0.158635  1 C  pz         
     5     -0.154024  1 C  pz         

 Vector    6  Occ=0.000000D+00  E= 1.588026D-01
              MO Center= -8.1D-08,  7.3D-06,  1.1D-05, r^2= 5.4D+00
   Bfn.  Coefficient  Atom+Function         Bfn.  Coefficient  Atom+Function  
  ----- ------------  ---------------      ----- ------------  ---------------
    10      2.330154  1 C  s                 22     -0.817722  2 H  s          
    28     -0.817724  3 H  s                 34     -0.817705  4 H  s          
    40     -0.817738  5 H  s          

 Vector    7  Occ=0.000000D+00  E= 2.374796D-01
              MO Center=  2.8D-01, -2.7D-01, -8.0D-01, r^2= 5.0D+00
   Bfn.  Coefficient  Atom+Function         Bfn.  Coefficient  Atom+Function  
  ----- ------------  ---------------      ----- ------------  ---------------
    34      2.051532  4 H  s                 22     -1.681502  2 H  s          
    11      0.804631  1 C  px                13      0.798662  1 C  pz         
    28     -0.634671  3 H  s                 40      0.264653  5 H  s          
    33     -0.185075  4 H  s                 21      0.151695  2 H  s          

 Vector    8  Occ=0.000000D+00  E= 2.374817D-01
              MO Center= -5.6D-01,  6.1D-01,  4.9D-01, r^2= 4.9D+00
   Bfn.  Coefficient  Atom+Function         Bfn.  Coefficient  Atom+Function  
  ----- ------------  ---------------      ----- ------------  ---------------
    40      2.182501  5 H  s                 28     -1.492490  3 H  s          
    12     -1.132753  1 C  py                34     -0.719291  4 H  s          
    39     -0.196908  5 H  s          

 Vector    9  Occ=0.000000D+00  E= 2.374838D-01
              MO Center=  2.8D-01, -3.4D-01,  3.0D-01, r^2= 5.5D+00
   Bfn.  Coefficient  Atom+Function         Bfn.  Coefficient  Atom+Function  
  ----- ------------  ---------------      ----- ------------  ---------------
    28     -1.732475  3 H  s                 22      1.674365  2 H  s          
    34      0.951667  4 H  s                 40     -0.893546  5 H  s          
    11     -0.801189  1 C  px                13      0.803408  1 C  pz         
    27      0.156323  3 H  s                 21     -0.151078  2 H  s          

 Vector   10  Occ=0.000000D+00  E= 4.276751D-01
              MO Center= -6.9D-02,  5.9D-02,  2.5D-01, r^2= 2.7D+00
   Bfn.  Coefficient  Atom+Function         Bfn.  Coefficient  Atom+Function  
  ----- ------------  ---------------      ----- ------------  ---------------
    33      1.265214  4 H  s                 11      1.102909  1 C  px         
    13      1.070021  1 C  pz                21     -0.974099  2 H  s          
    12      0.373620  1 C  py                39     -0.213043  5 H  s          

 Vector   11  Occ=0.000000D+00  E= 4.276769D-01
              MO Center=  1.5D-01, -4.3D-02, -2.1D-01, r^2= 2.7D+00
   Bfn.  Coefficient  Atom+Function         Bfn.  Coefficient  Atom+Function  
  ----- ------------  ---------------      ----- ------------  ---------------
    12      1.508849  1 C  py                27      1.154478  3 H  s          
    39     -1.122263  5 H  s                 13     -0.470474  1 C  pz         

 Vector   12  Occ=0.000000D+00  E= 4.276785D-01
              MO Center= -8.1D-02, -1.6D-02, -4.4D-02, r^2= 2.8D+00
   Bfn.  Coefficient  Atom+Function         Bfn.  Coefficient  Atom+Function  
  ----- ------------  ---------------      ----- ------------  ---------------
    11      1.132061  1 C  px                13     -1.065207  1 C  pz         
    21     -0.999815  2 H  s                 39      0.803733  5 H  s          
    27      0.782248  3 H  s                 33     -0.586144  4 H  s          
    12     -0.291108  1 C  py         

 Vector   13  Occ=0.000000D+00  E= 7.522524D-01
              MO Center=  9.5D-08, -2.4D-06, -1.3D-05, r^2= 2.5D+00
   Bfn.  Coefficient  Atom+Function         Bfn.  Coefficient  Atom+Function  
  ----- ------------  ---------------      ----- ------------  ---------------
    10      1.339091  1 C  s                 21     -1.167738  2 H  s          
    27     -1.167727  3 H  s                 33     -1.167752  4 H  s          
    39     -1.167735  5 H  s                  6      0.603366  1 C  s          
    22      0.265557  2 H  s                 28      0.265542  3 H  s          
    34      0.265576  4 H  s                 40      0.265553  5 H  s          

 Vector   14  Occ=0.000000D+00  E= 8.145614D-01
              MO Center=  8.3D-02, -5.3D-02,  7.5D-03, r^2= 2.6D+00
   Bfn.  Coefficient  Atom+Function         Bfn.  Coefficient  Atom+Function  
  ----- ------------  ---------------      ----- ------------  ---------------
    22     -1.259229  2 H  s                 11      1.185864  1 C  px         
    12      1.165058  1 C  py                28      1.070340  3 H  s          
    34      0.962115  4 H  s                 40     -0.773279  5 H  s          
     7     -0.734956  1 C  px                 8     -0.722062  1 C  py         
    21      0.421434  2 H  s                 27     -0.358246  3 H  s          

 Vector   15  Occ=0.000000D+00  E= 8.145632D-01
              MO Center= -1.7D-01, -2.2D-01, -9.2D-02, r^2= 2.6D+00
   Bfn.  Coefficient  Atom+Function         Bfn.  Coefficient  Atom+Function  
  ----- ------------  ---------------      ----- ------------  ---------------
    13      1.655570  1 C  pz                34      1.505013  4 H  s          
    28     -1.395299  3 H  s                  9     -1.026059  1 C  pz         
    33     -0.503697  4 H  s                 27      0.466996  3 H  s          
    12     -0.288954  1 C  py                 5     -0.250064  1 C  pz         
    40     -0.190868  5 H  s                  8      0.179082  1 C  py         


 center of mass
 --------------
 x =   0.00000001 y =  -0.00000000 z =  -0.00000167

 moments of inertia (a.u.)
 ------------------
          11.282829332455           0.000002348435          -0.000002682752
           0.000002348435          11.282827756576           0.000002889330
          -0.000002682752           0.000002889330          11.282830823779

  Mulliken analysis of the total density
  --------------------------------------

    Atom       Charge   Shell Charges
 -----------   ------   -------------------------------------------------------
    1 C    6     6.36   1.10  0.89  0.60  0.70  1.55  0.49  0.98  0.04
    2 H    1     0.91   0.27  0.52  0.10  0.03
    3 H    1     0.91   0.27  0.52  0.10  0.03
    4 H    1     0.91   0.27  0.52  0.10  0.03
    5 H    1     0.91   0.27  0.52  0.10  0.03

       Multipole analysis of the density wrt the origin
       ------------------------------------------------

     L   x y z        total         open         nuclear
     -   - - -        -----         ----         -------
     0   0 0 0     -0.000000      0.000000     10.000000

     1   1 0 0      0.000000      0.000000      0.000000
     1   0 1 0      0.000001      0.000000     -0.000000
     1   0 0 1      0.000001      0.000000     -0.000017

     2   2 0 0     -6.247286      0.000000      5.597613
     2   1 1 0     -0.000003      0.000000     -0.000002
     2   1 0 1      0.000001      0.000000      0.000003
     2   0 2 0     -6.247284      0.000000      5.597615
     2   0 1 1      0.000001      0.000000     -0.000003
     2   0 0 2     -6.247288      0.000000      5.597612

 Line search: 
     step= 1.00 grad=-8.6D-06 hess= 4.1D-06 energy=    -40.209024 mode=accept  
 new step= 1.00                   predicted energy=    -40.209024

          --------
          Step   2
          --------


                         Geometry "geometry" -> "geometry"
                         ---------------------------------

 Output coordinates in angstroms (scale by  1.889725989 to convert to a.u.)

  No.       Tag          Charge          X              Y              Z
 ---- ---------------- ---------- -------------- -------------- --------------
    1 C                    6.0000     0.00000001    -0.00000000    -0.00000083
    2 H                    1.0000     1.08425951     0.00000233    -0.00000203
    3 H                    1.0000    -0.36141698    -0.72896902     0.71665837
    4 H                    1.0000    -0.36142056    -0.25616147    -0.98963479
    5 H                    1.0000    -0.36142199     0.98512816     0.27297427

      Atomic Mass 
      ----------- 

      C                 12.000000
      H                  1.007825


 Effective nuclear repulsion energy (a.u.)      13.5065222783

            Nuclear Dipole moment (a.u.) 
            ----------------------------
        X                 Y               Z
 ---------------- ---------------- ----------------
     0.0000000752    -0.0000000207    -0.0000172860

                                 NWChem SCF Module
                                 -----------------



  ao basis        = "ao basis"
  functions       =    43
  atoms           =     5
  closed shells   =     5
  open shells     =     0
  charge          =   0.00
  wavefunction    = RHF 
  input vectors   = ./CH4.movecs
  output vectors  = ./CH4.movecs
  use symmetry    = F
  symmetry adapt  = F


 Summary of "ao basis" -> "ao basis" (cartesian)
 ------------------------------------------------------------------------------
       Tag                 Description            Shells   Functions and Types
 ---------------- ------------------------------  ------  ---------------------
 H                          6-311G**                 4        6   3s1p
 C                          6-311G**                 8       19   4s3p1d



  The SCF is already converged 

         Total SCF energy =    -40.209023575443

                              NWChem Gradients Module
                              -----------------------



  wavefunction    =   RHF     



                         RHF ENERGY GRADIENTS

    atom               coordinates                        gradient
                 x          y          z           x          y          z
   1 C       0.000000  -0.000000  -0.000002    0.000000  -0.000000   0.000000
   2 H       2.048953   0.000004  -0.000004    0.000034  -0.000000   0.000000
   3 H      -0.682979  -1.377552   1.354288   -0.000012  -0.000023   0.000023
   4 H      -0.682986  -0.484075  -1.870139   -0.000011  -0.000008  -0.000031
   5 H      -0.682989   1.861622   0.515847   -0.000011   0.000031   0.000009

                 ----------------------------------------
                 |  Time  |  1-e(secs)   |  2-e(secs)   |
                 ----------------------------------------
                 |  CPU   |       0.00   |       0.11   |
                 ----------------------------------------
                 |  WALL  |       0.00   |       0.22   |
                 ----------------------------------------

  Step       Energy      Delta E   Gmax     Grms     Xrms     Xmax   Walltime
  ---- ---------------- -------- -------- -------- -------- -------- --------
@    2     -40.20902358 -4.5D-06  0.00003  0.00002  0.00121  0.00235      2.8
                                     ok       ok                    



                                Z-matrix (autoz)
                                -------- 

 Units are Angstrom for bonds and degrees for angles

      Type          Name      I     J     K     L     M      Value     Gradient
      ----------- --------  ----- ----- ----- ----- ----- ---------- ----------
    1 Stretch                  1     2                       1.08426    0.00003
    2 Stretch                  1     3                       1.08426    0.00003
    3 Stretch                  1     4                       1.08426    0.00003
    4 Stretch                  1     5                       1.08426    0.00003
    5 Bend                     2     1     3               109.47119   -0.00000
    6 Bend                     2     1     4               109.47123    0.00000
    7 Bend                     2     1     5               109.47124    0.00000
    8 Bend                     3     1     4               109.47122    0.00000
    9 Bend                     3     1     5               109.47127    0.00000
   10 Bend                     4     1     5               109.47117   -0.00000

                                 NWChem SCF Module
                                 -----------------



  ao basis        = "ao basis"
  functions       =    43
  atoms           =     5
  closed shells   =     5
  open shells     =     0
  charge          =   0.00
  wavefunction    = RHF 
  input vectors   = ./CH4.movecs
  output vectors  = ./CH4.movecs
  use symmetry    = F
  symmetry adapt  = F


 Summary of "ao basis" -> "ao basis" (cartesian)
 ------------------------------------------------------------------------------
       Tag                 Description            Shells   Functions and Types
 ---------------- ------------------------------  ------  ---------------------
 H                          6-311G**                 4        6   3s1p
 C                          6-311G**                 8       19   4s3p1d



 Forming initial guess at       2.8s


 Loading old vectors from job with title :




 Starting SCF solution at       2.8s



 ----------------------------------------------
         Quadratically convergent ROHF

 Convergence threshold     :          1.000E-04
 Maximum no. of iterations :          100
 Final Fock-matrix accuracy:          1.000E-07
 ----------------------------------------------


              iter       energy          gnorm     gmax       time
             ----- ------------------- --------- --------- --------
                 1      -40.2090235811  1.69D-04  6.65D-05      1.5
                 2      -40.2090235826  5.53D-06  2.89D-06      1.6


       Final RHF  results 
       ------------------ 

         Total SCF energy =    -40.209023582613
      One-electron energy =    -79.855292333823
      Two-electron energy =     26.139148834915
 Nuclear repulsion energy =     13.507119916294

        Time for solution =      0.2s


             Final eigenvalues
             -----------------

              1      
    1  -11.2052
    2   -0.9450
    3   -0.5461
    4   -0.5461
    5   -0.5461
    6    0.1588
    7    0.2375
    8    0.2375
    9    0.2375
   10    0.4277
   11    0.4277
   12    0.4277
   13    0.7523
   14    0.8146
   15    0.8146

                       ROHF Final Molecular Orbital Analysis
                       -------------------------------------

 Vector    2  Occ=2.000000D+00  E=-9.450353D-01
              MO Center=  3.0D-09,  1.5D-07, -1.1D-06, r^2= 1.0D+00
   Bfn.  Coefficient  Atom+Function         Bfn.  Coefficient  Atom+Function  
  ----- ------------  ---------------      ----- ------------  ---------------
     6      0.423237  1 C  s                 10      0.262470  1 C  s          
     2     -0.169855  1 C  s          

 Vector    3  Occ=2.000000D+00  E=-5.461024D-01
              MO Center= -8.2D-03, -2.4D-01,  2.3D-01, r^2= 1.2D+00
   Bfn.  Coefficient  Atom+Function         Bfn.  Coefficient  Atom+Function  
  ----- ------------  ---------------      ----- ------------  ---------------
    27      0.263098  3 H  s                  8     -0.177504  1 C  py         
     9      0.170686  1 C  pz                 7     -0.168003  1 C  px         
    26      0.167571  3 H  s                 21     -0.153393  2 H  s          

 Vector    4  Occ=2.000000D+00  E=-5.461022D-01
              MO Center=  2.3D-02,  3.1D-01,  9.0D-02, r^2= 1.2D+00
   Bfn.  Coefficient  Atom+Function         Bfn.  Coefficient  Atom+Function  
  ----- ------------  ---------------      ----- ------------  ---------------
    39      0.258169  5 H  s                  8      0.228215  1 C  py         
     7     -0.183089  1 C  px                21     -0.167168  2 H  s          
    38      0.164432  5 H  s          

 Vector    5  Occ=2.000000D+00  E=-5.461020D-01
              MO Center= -1.5D-02, -7.6D-02, -3.2D-01, r^2= 1.2D+00
   Bfn.  Coefficient  Atom+Function         Bfn.  Coefficient  Atom+Function  
  ----- ------------  ---------------      ----- ------------  ---------------
    33      0.263823  4 H  s                  9     -0.237635  1 C  pz         
    32      0.168032  4 H  s                  7     -0.164681  1 C  px         
    13     -0.155647  1 C  pz                 5     -0.151132  1 C  pz         
    21     -0.150356  2 H  s          

 Vector    6  Occ=0.000000D+00  E= 1.588069D-01
              MO Center= -1.1D-07,  7.3D-06,  1.1D-05, r^2= 5.4D+00
   Bfn.  Coefficient  Atom+Function         Bfn.  Coefficient  Atom+Function  
  ----- ------------  ---------------      ----- ------------  ---------------
    10      2.330272  1 C  s                 22     -0.817745  2 H  s          
    28     -0.817747  3 H  s                 34     -0.817728  4 H  s          
    40     -0.817761  5 H  s          

 Vector    7  Occ=0.000000D+00  E= 2.374834D-01
              MO Center=  2.8D-01, -2.7D-01, -8.0D-01, r^2= 5.0D+00
   Bfn.  Coefficient  Atom+Function         Bfn.  Coefficient  Atom+Function  
  ----- ------------  ---------------      ----- ------------  ---------------
    34      2.051973  4 H  s                 22     -1.682370  2 H  s          
    11      0.805000  1 C  px                13      0.798390  1 C  pz         
    28     -0.632419  3 H  s                 40      0.262828  5 H  s          
    33     -0.185145  4 H  s                 21      0.151798  2 H  s          

 Vector    8  Occ=0.000000D+00  E= 2.374855D-01
              MO Center= -5.6D-01,  6.1D-01,  4.9D-01, r^2= 4.9D+00
   Bfn.  Coefficient  Atom+Function         Bfn.  Coefficient  Atom+Function  
  ----- ------------  ---------------      ----- ------------  ---------------
    40      2.184934  5 H  s                 28     -1.489275  3 H  s          
    12     -1.132714  1 C  py                34     -0.719404  4 H  s          
    39     -0.197159  5 H  s          

 Vector    9  Occ=0.000000D+00  E= 2.374875D-01
              MO Center=  2.8D-01, -3.4D-01,  3.1D-01, r^2= 5.5D+00
   Bfn.  Coefficient  Atom+Function         Bfn.  Coefficient  Atom+Function  
  ----- ------------  ---------------      ----- ------------  ---------------
    28     -1.736258  3 H  s                 22      1.673785  2 H  s          
    34      0.950991  4 H  s                 40     -0.888505  5 H  s          
    11     -0.800864  1 C  px                13      0.803582  1 C  pz         
    27      0.156690  3 H  s                 21     -0.151051  2 H  s          

 Vector   10  Occ=0.000000D+00  E= 4.276800D-01
              MO Center= -7.0D-02,  6.0D-02,  2.5D-01, r^2= 2.7D+00
   Bfn.  Coefficient  Atom+Function         Bfn.  Coefficient  Atom+Function  
  ----- ------------  ---------------      ----- ------------  ---------------
    33      1.265013  4 H  s                 11      1.105721  1 C  px         
    13      1.073578  1 C  pz                21     -0.976526  2 H  s          
    12      0.355296  1 C  py                39     -0.198291  5 H  s          

 Vector   11  Occ=0.000000D+00  E= 4.276819D-01
              MO Center=  1.5D-01, -4.5D-02, -2.1D-01, r^2= 2.7D+00
   Bfn.  Coefficient  Atom+Function         Bfn.  Coefficient  Atom+Function  
  ----- ------------  ---------------      ----- ------------  ---------------
    12      1.514119  1 C  py                27      1.151283  3 H  s          
    39     -1.127028  5 H  s                 13     -0.454828  1 C  pz         

 Vector   12  Occ=0.000000D+00  E= 4.276835D-01
              MO Center= -8.0D-02, -1.5D-02, -4.4D-02, r^2= 2.8D+00
   Bfn.  Coefficient  Atom+Function         Bfn.  Coefficient  Atom+Function  
  ----- ------------  ---------------      ----- ------------  ---------------
    11      1.129957  1 C  px                13     -1.068644  1 C  pz         
    21     -0.997899  2 H  s                 39      0.800927  5 H  s          
    27      0.785738  3 H  s                 33     -0.588743  4 H  s          
    12     -0.287489  1 C  py         

 Vector   13  Occ=0.000000D+00  E= 7.523029D-01
              MO Center=  1.4D-07, -2.3D-06, -1.2D-05, r^2= 2.5D+00
   Bfn.  Coefficient  Atom+Function         Bfn.  Coefficient  Atom+Function  
  ----- ------------  ---------------      ----- ------------  ---------------
    10      1.339709  1 C  s                 21     -1.167895  2 H  s          
    27     -1.167885  3 H  s                 33     -1.167906  4 H  s          
    39     -1.167892  5 H  s                  6      0.603398  1 C  s          
    22      0.265480  2 H  s                 28      0.265467  3 H  s          
    34      0.265494  4 H  s                 40      0.265477  5 H  s          

 Vector   14  Occ=0.000000D+00  E= 8.145834D-01
              MO Center=  8.3D-02, -5.0D-02, -8.9D-04, r^2= 2.6D+00
   Bfn.  Coefficient  Atom+Function         Bfn.  Coefficient  Atom+Function  
  ----- ------------  ---------------      ----- ------------  ---------------
    22     -1.257979  2 H  s                 11      1.184612  1 C  px         
    12      1.160378  1 C  py                28      1.048735  3 H  s          
    34      0.985262  4 H  s                 40     -0.776069  5 H  s          
     7     -0.734213  1 C  px                 8     -0.719195  1 C  py         
    21      0.421063  2 H  s                 27     -0.351054  3 H  s          

 Vector   15  Occ=0.000000D+00  E= 8.145851D-01
              MO Center= -1.7D-01, -2.2D-01, -8.1D-02, r^2= 2.6D+00
   Bfn.  Coefficient  Atom+Function         Bfn.  Coefficient  Atom+Function  
  ----- ------------  ---------------      ----- ------------  ---------------
    13      1.644285  1 C  pz                34      1.488168  4 H  s          
    28     -1.422847  3 H  s                  9     -1.019111  1 C  pz         
    33     -0.498116  4 H  s                 27      0.476268  3 H  s          
    12     -0.352399  1 C  py                 5     -0.248356  1 C  pz         
     8      0.218413  1 C  py         


 center of mass
 --------------
 x =   0.00000001 y =   0.00000002 z =  -0.00000173

 moments of inertia (a.u.)
 ------------------
          11.281830848373           0.000002122007          -0.000002244313
           0.000002122007          11.281829308094           0.000002172300
          -0.000002244313           0.000002172300          11.281832492430

  Mulliken analysis of the total density
  --------------------------------------

    Atom       Charge   Shell Charges
 -----------   ------   -------------------------------------------------------
    1 C    6     6.36   1.10  0.89  0.60  0.70  1.55  0.49  0.97  0.04
    2 H    1     0.91   0.27  0.52  0.10  0.03
    3 H    1     0.91   0.27  0.52  0.10  0.03
    4 H    1     0.91   0.27  0.52  0.10  0.03
    5 H    1     0.91   0.27  0.52  0.10  0.03

       Multipole analysis of the density wrt the origin
       ------------------------------------------------

     L   x y z        total         open         nuclear
     -   - - -        -----         ----         -------
     0   0 0 0     -0.000000      0.000000     10.000000

     1   1 0 0      0.000000      0.000000      0.000000
     1   0 1 0      0.000001      0.000000      0.000000
     1   0 0 1      0.000001      0.000000     -0.000018

     2   2 0 0     -6.247171      0.000000      5.597118
     2   1 1 0     -0.000003      0.000000     -0.000002
     2   1 0 1      0.000001      0.000000      0.000002
     2   0 2 0     -6.247169      0.000000      5.597120
     2   0 1 1      0.000001      0.000000     -0.000002
     2   0 0 2     -6.247173      0.000000      5.597116

 Line search: 
     step= 1.00 grad=-1.2D-08 hess= 5.2D-09 energy=    -40.209024 mode=accept  
 new step= 1.00                   predicted energy=    -40.209024

          --------
          Step   3
          --------


                         Geometry "geometry" -> "geometry"
                         ---------------------------------

 Output coordinates in angstroms (scale by  1.889725989 to convert to a.u.)

  No.       Tag          Charge          X              Y              Z
 ---- ---------------- ---------- -------------- -------------- --------------
    1 C                    6.0000     0.00000000     0.00000002    -0.00000088
    2 H                    1.0000     1.08421155     0.00000235    -0.00000206
    3 H                    1.0000    -0.36140103    -0.72893674     0.71662663
    4 H                    1.0000    -0.36140453    -0.25615021    -0.98959098
    5 H                    1.0000    -0.36140599     0.98508458     0.27296228

      Atomic Mass 
      ----------- 

      C                 12.000000
      H                  1.007825


 Effective nuclear repulsion energy (a.u.)      13.5071199163

            Nuclear Dipole moment (a.u.) 
            ----------------------------
        X                 Y               Z
 ---------------- ---------------- ----------------
     0.0000000379     0.0000001540    -0.0000177304

                                 NWChem SCF Module
                                 -----------------



  ao basis        = "ao basis"
  functions       =    43
  atoms           =     5
  closed shells   =     5
  open shells     =     0
  charge          =   0.00
  wavefunction    = RHF 
  input vectors   = ./CH4.movecs
  output vectors  = ./CH4.movecs
  use symmetry    = F
  symmetry adapt  = F


 Summary of "ao basis" -> "ao basis" (cartesian)
 ------------------------------------------------------------------------------
       Tag                 Description            Shells   Functions and Types
 ---------------- ------------------------------  ------  ---------------------
 H                          6-311G**                 4        6   3s1p
 C                          6-311G**                 8       19   4s3p1d



  The SCF is already converged 

         Total SCF energy =    -40.209023582613

                              NWChem Gradients Module
                              -----------------------



  wavefunction    =   RHF     



                         RHF ENERGY GRADIENTS

    atom               coordinates                        gradient
                 x          y          z           x          y          z
   1 C       0.000000   0.000000  -0.000002    0.000000  -0.000000   0.000000
   2 H       2.048863   0.000004  -0.000004   -0.000000  -0.000000   0.000000
   3 H      -0.682949  -1.377491   1.354228   -0.000000   0.000000  -0.000000
   4 H      -0.682956  -0.484054  -1.870056    0.000000   0.000000   0.000000
   5 H      -0.682958   1.861540   0.515824    0.000000  -0.000000  -0.000000

                 ----------------------------------------
                 |  Time  |  1-e(secs)   |  2-e(secs)   |
                 ----------------------------------------
                 |  CPU   |       0.00   |       0.11   |
                 ----------------------------------------
                 |  WALL  |       0.00   |       0.21   |
                 ----------------------------------------

  Step       Energy      Delta E   Gmax     Grms     Xrms     Xmax   Walltime
  ---- ---------------- -------- -------- -------- -------- -------- --------
@    3     -40.20902358 -7.2D-09  0.00000  0.00000  0.00005  0.00009      3.4
                                     ok       ok       ok       ok  



                                Z-matrix (autoz)
                                -------- 

 Units are Angstrom for bonds and degrees for angles

      Type          Name      I     J     K     L     M      Value     Gradient
      ----------- --------  ----- ----- ----- ----- ----- ---------- ----------
    1 Stretch                  1     2                       1.08421   -0.00000
    2 Stretch                  1     3                       1.08421   -0.00000
    3 Stretch                  1     4                       1.08421   -0.00000
    4 Stretch                  1     5                       1.08421   -0.00000
    5 Bend                     2     1     3               109.47120    0.00000
    6 Bend                     2     1     4               109.47123   -0.00000
    7 Bend                     2     1     5               109.47124    0.00000
    8 Bend                     3     1     4               109.47122    0.00000
    9 Bend                     3     1     5               109.47126    0.00000
   10 Bend                     4     1     5               109.47118   -0.00000


      ----------------------
      Optimization converged
      ----------------------


  Step       Energy      Delta E   Gmax     Grms     Xrms     Xmax   Walltime
  ---- ---------------- -------- -------- -------- -------- -------- --------
@    3     -40.20902358 -7.2D-09  0.00000  0.00000  0.00005  0.00009      3.4
                                     ok       ok       ok       ok  



                                Z-matrix (autoz)
                                -------- 

 Units are Angstrom for bonds and degrees for angles

      Type          Name      I     J     K     L     M      Value     Gradient
      ----------- --------  ----- ----- ----- ----- ----- ---------- ----------
    1 Stretch                  1     2                       1.08421   -0.00000
    2 Stretch                  1     3                       1.08421   -0.00000
    3 Stretch                  1     4                       1.08421   -0.00000
    4 Stretch                  1     5                       1.08421   -0.00000
    5 Bend                     2     1     3               109.47120    0.00000
    6 Bend                     2     1     4               109.47123   -0.00000
    7 Bend                     2     1     5               109.47124    0.00000
    8 Bend                     3     1     4               109.47122    0.00000
    9 Bend                     3     1     5               109.47126    0.00000
   10 Bend                     4     1     5               109.47118   -0.00000



                         Geometry "geometry" -> "geometry"
                         ---------------------------------

 Output coordinates in angstroms (scale by  1.889725989 to convert to a.u.)

  No.       Tag          Charge          X              Y              Z
 ---- ---------------- ---------- -------------- -------------- --------------
    1 C                    6.0000     0.00000000     0.00000002    -0.00000088
    2 H                    1.0000     1.08421155     0.00000235    -0.00000206
    3 H                    1.0000    -0.36140103    -0.72893674     0.71662663
    4 H                    1.0000    -0.36140453    -0.25615021    -0.98959098
    5 H                    1.0000    -0.36140599     0.98508458     0.27296228

      Atomic Mass 
      ----------- 

      C                 12.000000
      H                  1.007825


 Effective nuclear repulsion energy (a.u.)      13.5071199163

            Nuclear Dipole moment (a.u.) 
            ----------------------------
        X                 Y               Z
 ---------------- ---------------- ----------------
     0.0000000379     0.0000001540    -0.0000177304


                Final and change from initial internal coordinates
                --------------------------------------------------



                                Z-matrix (autoz)
                                -------- 

 Units are Angstrom for bonds and degrees for angles

      Type          Name      I     J     K     L     M      Value       Change
      ----------- --------  ----- ----- ----- ----- ----- ---------- ----------
    1 Stretch                  1     2                       1.08421    0.01421
    2 Stretch                  1     3                       1.08421    0.01422
    3 Stretch                  1     4                       1.08421    0.01421
    4 Stretch                  1     5                       1.08421    0.01421
    5 Bend                     2     1     3               109.47120    0.00025
    6 Bend                     2     1     4               109.47123   -0.00016
    7 Bend                     2     1     5               109.47124   -0.00023
    8 Bend                     3     1     4               109.47122   -0.00006
    9 Bend                     3     1     5               109.47126   -0.00027
   10 Bend                     4     1     5               109.47118    0.00047

 ==============================================================================
                                internuclear distances
 ------------------------------------------------------------------------------
       center one      |      center two      | atomic units |  angstroms
 ------------------------------------------------------------------------------
    2 H                |   1 C                |     2.04886  |     1.08421
    3 H                |   1 C                |     2.04886  |     1.08421
    4 H                |   1 C                |     2.04886  |     1.08421
    5 H                |   1 C                |     2.04886  |     1.08421
 ------------------------------------------------------------------------------
                         number of included internuclear distances:          4
 ==============================================================================



 ==============================================================================
                                 internuclear angles
 ------------------------------------------------------------------------------
        center 1       |       center 2       |       center 3       |  degrees
 ------------------------------------------------------------------------------
    2 H                |   1 C                |   3 H                |   109.47
    2 H                |   1 C                |   4 H                |   109.47
    2 H                |   1 C                |   5 H                |   109.47
    3 H                |   1 C                |   4 H                |   109.47
    3 H                |   1 C                |   5 H                |   109.47
    4 H                |   1 C                |   5 H                |   109.47
 ------------------------------------------------------------------------------
                            number of included internuclear angles:          6
 ==============================================================================




 Task  times  cpu:        1.7s     wall:        3.3s


                                NWChem Input Module
                                -------------------


 Summary of allocated global arrays
-----------------------------------
  No active global arrays



                         GA Statistics for process    0
                         ------------------------------

       create   destroy   get      put      acc     scatter   gather  read&inc
calls:  550      550     2.23e+04 3950     2227        0        0      860     
number of processes/call 1.07e+00 1.27e+00 1.11e+00 0.00e+00 0.00e+00
bytes total:             9.74e+06 4.40e+06 1.37e+06 0.00e+00 0.00e+00 6.88e+03
bytes remote:            1.21e+06 2.31e+05 9.39e+04 0.00e+00 0.00e+00 0.00e+00
Max memory consumed for GA by this process: 154456 bytes

MA_summarize_allocated_blocks: starting scan ...
MA_summarize_allocated_blocks: scan completed: 0 heap blocks, 0 stack blocks
MA usage statistics:

	allocation statistics:
					      heap	     stack
					      ----	     -----
	current number of blocks	         0	         0
	maximum number of blocks	        18	        28
	current total bytes		         0	         0
	maximum total bytes		     80152	  27917400
	maximum total K-bytes		        81	     27918
	maximum total M-bytes		         1	        28


                                     CITATION
                                     --------
                Please cite the following reference when publishing
                           results obtained with NWChem:

                 M. Valiev, E.J. Bylaska, N. Govind, K. Kowalski,
              T.P. Straatsma, H.J.J. van Dam, D. Wang, J. Nieplocha,
                        E. Apra, T.L. Windus, W.A. de Jong
                 "NWChem: a comprehensive and scalable open-source
                  solution for large scale molecular simulations"
                      Comput. Phys. Commun. 181, 1477 (2010)
                           doi:10.1016/j.cpc.2010.04.018

                                      AUTHORS
                                      -------
          E. Apra, E. J. Bylaska, W. A. de Jong, N. Govind, K. Kowalski,
       T. P. Straatsma, M. Valiev, H. J. J. van Dam, D. Wang, T. L. Windus,
        J. Hammond, J. Autschbach, K. Bhaskaran-Nair, J. Brabec, K. Lopata,
    S. A. Fischer, S. Krishnamoorthy, M. Jacquelin, W. Ma, M. Klemm, O. Villa,
      Y. Chen, V. Anisimov, F. Aquino, S. Hirata, M. T. Hackler, V. Konjkov,
            D. Mejia-Rodriguez, T. Risthaus, M. Malagoli, A. Marenich,
   A. Otero-de-la-Roza, J. Mullin, P. Nichols, R. Peverati, J. Pittner, Y. Zhao,
        P.-D. Fan, A. Fonari, M. J. Williamson, R. J. Harrison, J. R. Rehr,
      M. Dupuis, D. Silverstein, D. M. A. Smith, J. Nieplocha, V. Tipparaju,
    M. Krishnan, B. E. Van Kuiken, A. Vazquez-Mayagoitia, L. Jensen, M. Swart,
      Q. Wu, T. Van Voorhis, A. A. Auer, M. Nooijen, L. D. Crosby, E. Brown,
      G. Cisneros, G. I. Fann, H. Fruchtl, J. Garza, K. Hirao, R. A. Kendall,
      J. A. Nichols, K. Tsemekhman, K. Wolinski, J. Anchell, D. E. Bernholdt,
      P. Borowski, T. Clark, D. Clerc, H. Dachsel, M. J. O. Deegan, K. Dyall,
    D. Elwood, E. Glendening, M. Gutowski, A. C. Hess, J. Jaffe, B. G. Johnson,
     J. Ju, R. Kobayashi, R. Kutteh, Z. Lin, R. Littlefield, X. Long, B. Meng,
      T. Nakajima, S. Niu, L. Pollack, M. Rosing, K. Glaesemann, G. Sandrone,
      M. Stave, H. Taylor, G. Thomas, J. H. van Lenthe, A. T. Wong, Z. Zhang.

 Total times  cpu:        1.7s     wall:        3.4s
