 argument  1 = H.nw



============================== echo of input deck ==============================
echo "H"
start H

scratch_dir /tmp
permanent_dir .

memory total 250 Mb

geometry units angstrom
 symmetry c1
 H 0.00 0.00 0.00
end

basis "ao basis" cartesian
 H library "6-311G**"
end

charge 0

scf
  uhf
  doublet
  direct
  maxiter 100
end

task scf energy
================================================================================


                                         
                                         


              Northwest Computational Chemistry Package (NWChem) 6.8
              ------------------------------------------------------


                    Environmental Molecular Sciences Laboratory
                       Pacific Northwest National Laboratory
                                Richland, WA 99352

                              Copyright (c) 1994-2017
                       Pacific Northwest National Laboratory
                            Battelle Memorial Institute

             NWChem is an open-source computational chemistry package
                        distributed under the terms of the
                      Educational Community License (ECL) 2.0
             A copy of the license is included with this distribution
                              in the LICENSE.TXT file

                                  ACKNOWLEDGMENT
                                  --------------

            This software and its documentation were developed at the
            EMSL at Pacific Northwest National Laboratory, a multiprogram
            national laboratory, operated for the U.S. Department of Energy
            by Battelle under Contract Number DE-AC05-76RL01830. Support
            for this work was provided by the Department of Energy Office
            of Biological and Environmental Research, Office of Basic
            Energy Sciences, and the Office of Advanced Scientific Computing.


           Job information
           ---------------

    hostname        = yodo.izt.uam.mx
    program         = nwchem
    date            = Sat Oct 24 16:01:01 2020

    compiled        = Sun_Jul_01_22:43:59_2018
    source          = /builddir/build/BUILD/nwchem-6.8.1
    nwchem branch   = 6.8.1
    nwchem revision = v6.8-133-ge032219
    ga revision     = 
    use scalapack   = T
    input           = H.nw
    prefix          = H.
    data base       = ./H.db
    status          = startup
    nproc           =        1
    time left       =     -1s



           Memory information
           ------------------

    heap     =    8191994 doubles =     62.5 Mbytes
    stack    =    8191999 doubles =     62.5 Mbytes
    global   =   16384000 doubles =    125.0 Mbytes (distinct from heap & stack)
    total    =   32767993 doubles =    250.0 Mbytes
    verify   = yes
    hardfail = no 


           Directory information
           ---------------------

  0 permanent = .
  0 scratch   = /tmp




                                NWChem Input Module
                                -------------------



 Scaling coordinates for geometry "geometry" by  1.889725989
 (inverse scale =  0.529177249)



                             Geometry "geometry" -> ""
                             -------------------------

 Output coordinates in angstroms (scale by  1.889725989 to convert to a.u.)

  No.       Tag          Charge          X              Y              Z
 ---- ---------------- ---------- -------------- -------------- --------------
    1 H                    1.0000     0.00000000     0.00000000     0.00000000

      Atomic Mass 
      ----------- 

      H                  1.007825


 Effective nuclear repulsion energy (a.u.)       0.0000000000

            Nuclear Dipole moment (a.u.) 
            ----------------------------
        X                 Y               Z
 ---------------- ---------------- ----------------
     0.0000000000     0.0000000000     0.0000000000


            XYZ format geometry
            -------------------
     1
 geometry
 H                     0.00000000     0.00000000     0.00000000

  library name resolved from: environment
  library file name is: </usr/share/nwchem/libraries/>
  
                      Basis "ao basis" -> "" (cartesian)
                      -----
  H (Hydrogen)
  ------------
            Exponent  Coefficients 
       -------------- ---------------------------------------------------------
  1 S  3.38650000E+01  0.025494
  1 S  5.09479000E+00  0.190373
  1 S  1.15879000E+00  0.852161

  2 S  3.25840000E-01  1.000000

  3 S  1.02741000E-01  1.000000

  4 P  7.50000000E-01  1.000000



 Summary of "ao basis" -> "" (cartesian)
 ------------------------------------------------------------------------------
       Tag                 Description            Shells   Functions and Types
 ---------------- ------------------------------  ------  ---------------------
 H                          6-311G**                 4        6   3s1p


                                 NWChem SCF Module
                                 -----------------



  ao basis        = "ao basis"
  functions       =     6
  atoms           =     1
  alpha electrons =     1
  beta  electrons =     0
  charge          =   0.00
  wavefunction    = UHF 
  input vectors   = atomic
  output vectors  = ./H.movecs
  use symmetry    = F
  symmetry adapt  = F


 Summary of "ao basis" -> "ao basis" (cartesian)
 ------------------------------------------------------------------------------
       Tag                 Description            Shells   Functions and Types
 ---------------- ------------------------------  ------  ---------------------
 H                          6-311G**                 4        6   3s1p



 Forming initial guess at       0.0s


      Superposition of Atomic Density Guess
      -------------------------------------

 Sum of atomic energies:          -0.49980920

      Non-variational initial energy
      ------------------------------

 Total energy =      -0.499810
 1-e energy   =      -0.499810
 2-e energy   =       0.000000
 HOMO         =      -0.499810
 LUMO         =       0.025906


 Starting SCF solution at       0.0s



 ----------------------------------------------
         Quadratically convergent UHF

 Convergence threshold     :          1.000E-04
 Maximum no. of iterations :          100
 Integral*density screening:          1.000E-07
 ----------------------------------------------


              iter       energy          gnorm     gmax       time
             ----- ------------------- --------- --------- --------
                 1       -0.4998098153  1.35D-15  1.33D-15      0.0


       Final UHF  results 
       ------------------ 

         Total SCF energy =     -0.499809815273
      One electron energy =     -0.499809815273
      Two electron energy =     -0.000000000000
 Nuclear repulsion energy =      0.000000000000

                       Sz =      0.5000
                 Sz(Sz+1) =      0.7500
                      S^2 =      0.7500

        Time for solution =      0.0s


          Final alpha eigenvalues
          -----------------------

              1      
    1   -0.4998
    2    0.3489
    3    1.4908
    4    1.4908
    5    1.4908
    6    2.4700

          Final beta eigenvalues
          ----------------------

              1      
    1    0.0563
    2    0.4924
    3    1.6220
    4    1.6220
    5    1.6220
    6    2.6015

                    UHF Final Alpha Molecular Orbital Analysis
                    ------------------------------------------

 Vector    1  Occ=1.000000D+00  E=-4.998098D-01
              MO Center=  0.0D+00,  0.0D+00,  0.0D+00, r^2= 8.4D-01
   Bfn.  Coefficient  Atom+Function         Bfn.  Coefficient  Atom+Function  
  ----- ------------  ---------------      ----- ------------  ---------------
     2      0.503711  1 H  s                  3      0.383567  1 H  s          
     1      0.238036  1 H  s          

 Vector    2  Occ=0.000000D+00  E= 3.489043D-01
              MO Center=  0.0D+00,  0.0D+00,  0.0D+00, r^2= 2.9D+00
   Bfn.  Coefficient  Atom+Function         Bfn.  Coefficient  Atom+Function  
  ----- ------------  ---------------      ----- ------------  ---------------
     3      1.557801  1 H  s                  2     -1.318409  1 H  s          

 Vector    3  Occ=0.000000D+00  E= 1.490761D+00
              MO Center=  0.0D+00,  0.0D+00,  0.0D+00, r^2= 4.7D-01
   Bfn.  Coefficient  Atom+Function         Bfn.  Coefficient  Atom+Function  
  ----- ------------  ---------------      ----- ------------  ---------------
     5      1.000000  1 H  py         

 Vector    4  Occ=0.000000D+00  E= 1.490761D+00
              MO Center=  0.0D+00,  0.0D+00,  0.0D+00, r^2= 4.7D-01
   Bfn.  Coefficient  Atom+Function         Bfn.  Coefficient  Atom+Function  
  ----- ------------  ---------------      ----- ------------  ---------------
     6      1.000000  1 H  pz         

 Vector    5  Occ=0.000000D+00  E= 1.490761D+00
              MO Center=  0.0D+00,  0.0D+00,  0.0D+00, r^2= 4.7D-01
   Bfn.  Coefficient  Atom+Function         Bfn.  Coefficient  Atom+Function  
  ----- ------------  ---------------      ----- ------------  ---------------
     4      1.000000  1 H  px         

 Vector    6  Occ=0.000000D+00  E= 2.469954D+00
              MO Center=  0.0D+00,  0.0D+00,  0.0D+00, r^2= 8.3D-01
   Bfn.  Coefficient  Atom+Function         Bfn.  Coefficient  Atom+Function  
  ----- ------------  ---------------      ----- ------------  ---------------
     2      1.882391  1 H  s                  1     -1.537252  1 H  s          
     3     -0.805962  1 H  s          


                     UHF Final Beta Molecular Orbital Analysis
                     -----------------------------------------

 Vector    1  Occ=0.000000D+00  E= 5.625058D-02
              MO Center=  1.6D-17, -1.8D-33,  4.0D-49, r^2= 1.8D+00
   Bfn.  Coefficient  Atom+Function         Bfn.  Coefficient  Atom+Function  
  ----- ------------  ---------------      ----- ------------  ---------------
     3      0.933636  1 H  s          

 Vector    2  Occ=0.000000D+00  E= 4.923826D-01
              MO Center= -4.7D-17,  1.0D-32, -1.1D-48, r^2= 2.0D+00
   Bfn.  Coefficient  Atom+Function         Bfn.  Coefficient  Atom+Function  
  ----- ------------  ---------------      ----- ------------  ---------------
     2      1.502324  1 H  s                  3     -1.328909  1 H  s          

 Vector    3  Occ=0.000000D+00  E= 1.622015D+00
              MO Center= -2.4D-17,  1.9D-32,  2.4D-17, r^2= 4.7D-01
   Bfn.  Coefficient  Atom+Function         Bfn.  Coefficient  Atom+Function  
  ----- ------------  ---------------      ----- ------------  ---------------
     4      0.707107  1 H  px                 6     -0.707107  1 H  pz         

 Vector    4  Occ=0.000000D+00  E= 1.622015D+00
              MO Center= -8.0D-18,  1.1D-17, -8.0D-18, r^2= 4.7D-01
   Bfn.  Coefficient  Atom+Function         Bfn.  Coefficient  Atom+Function  
  ----- ------------  ---------------      ----- ------------  ---------------
     5      0.707107  1 H  py                 4     -0.500000  1 H  px         
     6     -0.500000  1 H  pz         

 Vector    5  Occ=0.000000D+00  E= 1.622015D+00
              MO Center=  1.9D-18,  2.6D-18,  1.9D-18, r^2= 4.7D-01
   Bfn.  Coefficient  Atom+Function         Bfn.  Coefficient  Atom+Function  
  ----- ------------  ---------------      ----- ------------  ---------------
     5      0.707107  1 H  py                 4      0.500000  1 H  px         
     6      0.500000  1 H  pz         

 Vector    6  Occ=0.000000D+00  E= 2.601468D+00
              MO Center=  6.4D-17,  1.4D-32,  3.2D-48, r^2= 7.5D-01
   Bfn.  Coefficient  Atom+Function         Bfn.  Coefficient  Atom+Function  
  ----- ------------  ---------------      ----- ------------  ---------------
     2      1.810614  1 H  s                  1     -1.548483  1 H  s          
     3     -0.765356  1 H  s          


 center of mass
 --------------
 x =   0.00000000 y =   0.00000000 z =   0.00000000

 moments of inertia (a.u.)
 ------------------
           0.000000000000           0.000000000000           0.000000000000
           0.000000000000           0.000000000000           0.000000000000
           0.000000000000           0.000000000000           0.000000000000

  Mulliken analysis of the total density
  --------------------------------------

    Atom       Charge   Shell Charges
 -----------   ------   -------------------------------------------------------
    1 H    1     1.00   0.18  0.49  0.33  0.00

  Mulliken analysis of the alpha density
  --------------------------------------

    Atom       Charge   Shell Charges
 -----------   ------   -------------------------------------------------------
    1 H    1     1.00   0.18  0.49  0.33  0.00

       Multipole analysis of the density wrt the origin
       ------------------------------------------------

     L   x y z        total         alpha         beta         nuclear
     -   - - -        -----         -----         ----         -------
     0   0 0 0     -0.000000     -1.000000      0.000000      1.000000

     1   1 0 0      0.000000      0.000000      0.000000      0.000000
     1   0 1 0      0.000000      0.000000      0.000000      0.000000
     1   0 0 1      0.000000      0.000000      0.000000      0.000000

     2   2 0 0     -0.996999     -0.996999      0.000000      0.000000
     2   1 1 0      0.000000      0.000000      0.000000      0.000000
     2   1 0 1      0.000000      0.000000      0.000000      0.000000
     2   0 2 0     -0.996999     -0.996999      0.000000      0.000000
     2   0 1 1      0.000000      0.000000      0.000000      0.000000
     2   0 0 2     -0.996999     -0.996999      0.000000      0.000000


 Task  times  cpu:        0.0s     wall:        0.0s


                                NWChem Input Module
                                -------------------


 Summary of allocated global arrays
-----------------------------------
  No active global arrays



                         GA Statistics for process    0
                         ------------------------------

       create   destroy   get      put      acc     scatter   gather  read&inc
calls:   64       64      353      291       22        0        0        4     
number of processes/call 1.00e+00 1.00e+00 1.00e+00 0.00e+00 0.00e+00
bytes total:             4.11e+04 2.92e+04 3.38e+03 0.00e+00 0.00e+00 3.20e+01
bytes remote:            0.00e+00 0.00e+00 0.00e+00 0.00e+00 0.00e+00 0.00e+00
Max memory consumed for GA by this process: 4448 bytes

MA_summarize_allocated_blocks: starting scan ...
MA_summarize_allocated_blocks: scan completed: 0 heap blocks, 0 stack blocks
MA usage statistics:

	allocation statistics:
					      heap	     stack
					      ----	     -----
	current number of blocks	         0	         0
	maximum number of blocks	        16	        14
	current total bytes		         0	         0
	maximum total bytes		     80152	  22509208
	maximum total K-bytes		        81	     22510
	maximum total M-bytes		         1	        23


                                     CITATION
                                     --------
                Please cite the following reference when publishing
                           results obtained with NWChem:

                 M. Valiev, E.J. Bylaska, N. Govind, K. Kowalski,
              T.P. Straatsma, H.J.J. van Dam, D. Wang, J. Nieplocha,
                        E. Apra, T.L. Windus, W.A. de Jong
                 "NWChem: a comprehensive and scalable open-source
                  solution for large scale molecular simulations"
                      Comput. Phys. Commun. 181, 1477 (2010)
                           doi:10.1016/j.cpc.2010.04.018

                                      AUTHORS
                                      -------
          E. Apra, E. J. Bylaska, W. A. de Jong, N. Govind, K. Kowalski,
       T. P. Straatsma, M. Valiev, H. J. J. van Dam, D. Wang, T. L. Windus,
        J. Hammond, J. Autschbach, K. Bhaskaran-Nair, J. Brabec, K. Lopata,
    S. A. Fischer, S. Krishnamoorthy, M. Jacquelin, W. Ma, M. Klemm, O. Villa,
      Y. Chen, V. Anisimov, F. Aquino, S. Hirata, M. T. Hackler, V. Konjkov,
            D. Mejia-Rodriguez, T. Risthaus, M. Malagoli, A. Marenich,
   A. Otero-de-la-Roza, J. Mullin, P. Nichols, R. Peverati, J. Pittner, Y. Zhao,
        P.-D. Fan, A. Fonari, M. J. Williamson, R. J. Harrison, J. R. Rehr,
      M. Dupuis, D. Silverstein, D. M. A. Smith, J. Nieplocha, V. Tipparaju,
    M. Krishnan, B. E. Van Kuiken, A. Vazquez-Mayagoitia, L. Jensen, M. Swart,
      Q. Wu, T. Van Voorhis, A. A. Auer, M. Nooijen, L. D. Crosby, E. Brown,
      G. Cisneros, G. I. Fann, H. Fruchtl, J. Garza, K. Hirao, R. A. Kendall,
      J. A. Nichols, K. Tsemekhman, K. Wolinski, J. Anchell, D. E. Bernholdt,
      P. Borowski, T. Clark, D. Clerc, H. Dachsel, M. J. O. Deegan, K. Dyall,
    D. Elwood, E. Glendening, M. Gutowski, A. C. Hess, J. Jaffe, B. G. Johnson,
     J. Ju, R. Kobayashi, R. Kutteh, Z. Lin, R. Littlefield, X. Long, B. Meng,
      T. Nakajima, S. Niu, L. Pollack, M. Rosing, K. Glaesemann, G. Sandrone,
      M. Stave, H. Taylor, G. Thomas, J. H. van Lenthe, A. T. Wong, Z. Zhang.

 Total times  cpu:        0.0s     wall:        0.0s
