 argument  1 = H2.nw



============================== echo of input deck ==============================
echo "H2"
start H2

scratch_dir /tmp
permanent_dir .

memory total 250 Mb
geometry units angstrom
 symmetry c1
 H 0.00 0.00 -0.32
 H 0.00 0.00 0.32
end

basis "ao basis" cartesian
 H library "6-311G**"
end

charge 0

scf
    rhf
    singlet
    direct
    maxiter 100
end

task scf optimize
================================================================================


                                         
                                         


              Northwest Computational Chemistry Package (NWChem) 6.8
              ------------------------------------------------------


                    Environmental Molecular Sciences Laboratory
                       Pacific Northwest National Laboratory
                                Richland, WA 99352

                              Copyright (c) 1994-2017
                       Pacific Northwest National Laboratory
                            Battelle Memorial Institute

             NWChem is an open-source computational chemistry package
                        distributed under the terms of the
                      Educational Community License (ECL) 2.0
             A copy of the license is included with this distribution
                              in the LICENSE.TXT file

                                  ACKNOWLEDGMENT
                                  --------------

            This software and its documentation were developed at the
            EMSL at Pacific Northwest National Laboratory, a multiprogram
            national laboratory, operated for the U.S. Department of Energy
            by Battelle under Contract Number DE-AC05-76RL01830. Support
            for this work was provided by the Department of Energy Office
            of Biological and Environmental Research, Office of Basic
            Energy Sciences, and the Office of Advanced Scientific Computing.


           Job information
           ---------------

    hostname        = yodo.izt.uam.mx
    program         = nwchem
    date            = Sun Oct 25 13:44:26 2020

    compiled        = Sun_Jul_01_22:43:59_2018
    source          = /builddir/build/BUILD/nwchem-6.8.1
    nwchem branch   = 6.8.1
    nwchem revision = v6.8-133-ge032219
    ga revision     = 
    use scalapack   = T
    input           = H2.nw
    prefix          = H2.
    data base       = ./H2.db
    status          = startup
    nproc           =        2
    time left       =     -1s



           Memory information
           ------------------

    heap     =    8191994 doubles =     62.5 Mbytes
    stack    =    8191999 doubles =     62.5 Mbytes
    global   =   16384000 doubles =    125.0 Mbytes (distinct from heap & stack)
    total    =   32767993 doubles =    250.0 Mbytes
    verify   = yes
    hardfail = no 


           Directory information
           ---------------------

  0 permanent = .
  0 scratch   = /tmp




                                NWChem Input Module
                                -------------------



 Scaling coordinates for geometry "geometry" by  1.889725989
 (inverse scale =  0.529177249)

 Turning off AUTOSYM since
 SYMMETRY directive was detected!


          ------
          auto-z
          ------


                             Geometry "geometry" -> ""
                             -------------------------

 Output coordinates in angstroms (scale by  1.889725989 to convert to a.u.)

  No.       Tag          Charge          X              Y              Z
 ---- ---------------- ---------- -------------- -------------- --------------
    1 H                    1.0000     0.00000000     0.00000000    -0.32000000
    2 H                    1.0000     0.00000000     0.00000000     0.32000000

      Atomic Mass 
      ----------- 

      H                  1.007825


 Effective nuclear repulsion energy (a.u.)       0.8268394516

            Nuclear Dipole moment (a.u.) 
            ----------------------------
        X                 Y               Z
 ---------------- ---------------- ----------------
     0.0000000000     0.0000000000     0.0000000000



                                Z-matrix (autoz)
                                -------- 

 Units are Angstrom for bonds and degrees for angles

      Type          Name      I     J     K     L     M      Value
      ----------- --------  ----- ----- ----- ----- ----- ----------
    1 Stretch                  1     2                       0.64000


            XYZ format geometry
            -------------------
     2
 geometry
 H                     0.00000000     0.00000000    -0.32000000
 H                     0.00000000     0.00000000     0.32000000

 ==============================================================================
                                internuclear distances
 ------------------------------------------------------------------------------
       center one      |      center two      | atomic units |  angstroms
 ------------------------------------------------------------------------------
    2 H                |   1 H                |     1.20942  |     0.64000
 ------------------------------------------------------------------------------
                         number of included internuclear distances:          1
 ==============================================================================



  library name resolved from: environment
  library file name is: </usr/share/nwchem/libraries/>
  
                      Basis "ao basis" -> "" (cartesian)
                      -----
  H (Hydrogen)
  ------------
            Exponent  Coefficients 
       -------------- ---------------------------------------------------------
  1 S  3.38650000E+01  0.025494
  1 S  5.09479000E+00  0.190373
  1 S  1.15879000E+00  0.852161

  2 S  3.25840000E-01  1.000000

  3 S  1.02741000E-01  1.000000

  4 P  7.50000000E-01  1.000000



 Summary of "ao basis" -> "" (cartesian)
 ------------------------------------------------------------------------------
       Tag                 Description            Shells   Functions and Types
 ---------------- ------------------------------  ------  ---------------------
 H                          6-311G**                 4        6   3s1p




                           NWChem Geometry Optimization
                           ----------------------------


 maximum gradient threshold         (gmax) =   0.000450
 rms gradient threshold             (grms) =   0.000300
 maximum cartesian step threshold   (xmax) =   0.001800
 rms cartesian step threshold       (xrms) =   0.001200
 fixed trust radius                (trust) =   0.300000
 maximum step size to saddle      (sadstp) =   0.100000
 energy precision                  (eprec) =   1.0D-07
 maximum number of steps          (nptopt) =   20
 initial hessian option           (inhess) =    0
 line search option               (linopt) =    1
 hessian update option            (modupd) =    1
 saddle point option              (modsad) =    0
 initial eigen-mode to follow     (moddir) =    0
 initial variable to follow       (vardir) =    0
 follow first negative mode     (firstneg) =    T
 apply conjugacy                    (opcg) =    F
 source of zmatrix                         =   autoz   


          -------------------
          Energy Minimization
          -------------------


 Names of Z-matrix variables 
    1         

 Variables with the same non-blank name are constrained to be equal


 Using old Hessian from previous optimization

          --------
          Step   0
          --------


                         Geometry "geometry" -> "geometry"
                         ---------------------------------

 Output coordinates in angstroms (scale by  1.889725989 to convert to a.u.)

  No.       Tag          Charge          X              Y              Z
 ---- ---------------- ---------- -------------- -------------- --------------
    1 H                    1.0000     0.00000000     0.00000000    -0.32000000
    2 H                    1.0000     0.00000000     0.00000000     0.32000000

      Atomic Mass 
      ----------- 

      H                  1.007825


 Effective nuclear repulsion energy (a.u.)       0.8268394516

            Nuclear Dipole moment (a.u.) 
            ----------------------------
        X                 Y               Z
 ---------------- ---------------- ----------------
     0.0000000000     0.0000000000     0.0000000000

                                 NWChem SCF Module
                                 -----------------



  ao basis        = "ao basis"
  functions       =    12
  atoms           =     2
  closed shells   =     1
  open shells     =     0
  charge          =   0.00
  wavefunction    = RHF 
  input vectors   = atomic
  output vectors  = ./H2.movecs
  use symmetry    = F
  symmetry adapt  = F


 Summary of "ao basis" -> "ao basis" (cartesian)
 ------------------------------------------------------------------------------
       Tag                 Description            Shells   Functions and Types
 ---------------- ------------------------------  ------  ---------------------
 H                          6-311G**                 4        6   3s1p



 Forming initial guess at       0.2s


      Superposition of Atomic Density Guess
      -------------------------------------

 Sum of atomic energies:          -0.99961840

      Non-variational initial energy
      ------------------------------

 Total energy =      -0.848554
 1-e energy   =      -2.328187
 2-e energy   =       0.652794
 HOMO         =      -0.639363
 LUMO         =       0.140844


 Starting SCF solution at       0.2s



 ----------------------------------------------
         Quadratically convergent ROHF

 Convergence threshold     :          1.000E-04
 Maximum no. of iterations :          100
 Final Fock-matrix accuracy:          1.000E-07
 ----------------------------------------------


              iter       energy          gnorm     gmax       time
             ----- ------------------- --------- --------- --------
                 1       -1.1228979810  1.11D-01  8.87D-02      0.0
                 2       -1.1243944044  9.54D-03  6.71D-03      0.0
                 3       -1.1244050918  6.60D-06  5.90D-06      0.0


       Final RHF  results 
       ------------------ 

         Total SCF energy =     -1.124405091824
      One-electron energy =     -2.647359864109
      Two-electron energy =      0.696115320723
 Nuclear repulsion energy =      0.826839451562

        Time for solution =      0.0s


             Final eigenvalues
             -----------------

              1      
    1   -0.6276
    2    0.1789
    3    0.2987
    4    0.6761
    5    1.3471
    6    1.3471
    7    1.8619
    8    2.0800
    9    2.1694
   10    2.1694
   11    2.6979

                       ROHF Final Molecular Orbital Analysis
                       -------------------------------------

 Vector    1  Occ=2.000000D+00  E=-6.275646D-01
              MO Center= -7.9D-18, -6.4D-18, -1.7D-17, r^2= 6.6D-01
   Bfn.  Coefficient  Atom+Function         Bfn.  Coefficient  Atom+Function  
  ----- ------------  ---------------      ----- ------------  ---------------
     2      0.281964  1 H  s                  8      0.281964  2 H  s          
     1      0.198784  1 H  s                  7      0.198784  2 H  s          

 Vector    2  Occ=0.000000D+00  E= 1.789125D-01
              MO Center=  1.8D-19,  1.5D-19, -1.8D-16, r^2= 3.6D+00
   Bfn.  Coefficient  Atom+Function         Bfn.  Coefficient  Atom+Function  
  ----- ------------  ---------------      ----- ------------  ---------------
     3      2.824400  1 H  s                  9     -2.824400  2 H  s          
     2     -0.335872  1 H  s                  8      0.335872  2 H  s          

 Vector    3  Occ=0.000000D+00  E= 2.986812D-01
              MO Center= -6.2D-18, -9.7D-19, -1.9D-15, r^2= 3.2D+00
   Bfn.  Coefficient  Atom+Function         Bfn.  Coefficient  Atom+Function  
  ----- ------------  ---------------      ----- ------------  ---------------
     3      0.831874  1 H  s                  9      0.831874  2 H  s          
     2     -0.668543  1 H  s                  8     -0.668543  2 H  s          

 Vector    4  Occ=0.000000D+00  E= 6.761094D-01
              MO Center=  9.7D-19,  7.9D-19, -3.4D-16, r^2= 2.3D+00
   Bfn.  Coefficient  Atom+Function         Bfn.  Coefficient  Atom+Function  
  ----- ------------  ---------------      ----- ------------  ---------------
     3     -2.603455  1 H  s                  9      2.603455  2 H  s          
     2      2.544430  1 H  s                  8     -2.544430  2 H  s          
     6      0.267713  1 H  pz                12      0.267713  2 H  pz         

 Vector    5  Occ=0.000000D+00  E= 1.347057D+00
              MO Center= -6.4D-17,  2.0D-16, -1.2D-15, r^2= 5.3D-01
   Bfn.  Coefficient  Atom+Function         Bfn.  Coefficient  Atom+Function  
  ----- ------------  ---------------      ----- ------------  ---------------
     5      0.535763  1 H  py                11      0.535763  2 H  py         
     4     -0.172782  1 H  px                10     -0.172782  2 H  px         

 Vector    6  Occ=0.000000D+00  E= 1.347057D+00
              MO Center=  6.7D-17,  2.2D-17,  7.3D-16, r^2= 5.3D-01
   Bfn.  Coefficient  Atom+Function         Bfn.  Coefficient  Atom+Function  
  ----- ------------  ---------------      ----- ------------  ---------------
     4      0.535763  1 H  px                10      0.535763  2 H  px         
     5      0.172782  1 H  py                11      0.172782  2 H  py         

 Vector    7  Occ=0.000000D+00  E= 1.861884D+00
              MO Center=  4.1D-17, -1.6D-16, -4.2D-16, r^2= 1.0D+00
   Bfn.  Coefficient  Atom+Function         Bfn.  Coefficient  Atom+Function  
  ----- ------------  ---------------      ----- ------------  ---------------
     2      0.808823  1 H  s                  8      0.808823  2 H  s          
     6     -0.573424  1 H  pz                12      0.573424  2 H  pz         
     1     -0.406085  1 H  s                  7     -0.406085  2 H  s          
     3     -0.388196  1 H  s                  9     -0.388196  2 H  s          

 Vector    8  Occ=0.000000D+00  E= 2.080031D+00
              MO Center=  2.7D-19,  2.2D-19,  3.0D-15, r^2= 1.5D+00
   Bfn.  Coefficient  Atom+Function         Bfn.  Coefficient  Atom+Function  
  ----- ------------  ---------------      ----- ------------  ---------------
     2      4.027907  1 H  s                  8     -4.027907  2 H  s          
     3     -1.825563  1 H  s                  9      1.825563  2 H  s          
     6      1.552372  1 H  pz                12      1.552372  2 H  pz         
     1     -0.313822  1 H  s                  7      0.313822  2 H  s          

 Vector    9  Occ=0.000000D+00  E= 2.169358D+00
              MO Center= -1.4D-18,  4.0D-20, -1.8D-16, r^2= 7.1D-01
   Bfn.  Coefficient  Atom+Function         Bfn.  Coefficient  Atom+Function  
  ----- ------------  ---------------      ----- ------------  ---------------
     4      1.087790  1 H  px                10     -1.087790  2 H  px         

 Vector   10  Occ=0.000000D+00  E= 2.169358D+00
              MO Center= -3.5D-20, -1.2D-18,  1.1D-15, r^2= 7.1D-01
   Bfn.  Coefficient  Atom+Function         Bfn.  Coefficient  Atom+Function  
  ----- ------------  ---------------      ----- ------------  ---------------
     5      1.087790  1 H  py                11     -1.087790  2 H  py         

 Vector   11  Occ=0.000000D+00  E= 2.697915D+00
              MO Center=  1.3D-17,  1.0D-16, -2.0D-15, r^2= 7.2D-01
   Bfn.  Coefficient  Atom+Function         Bfn.  Coefficient  Atom+Function  
  ----- ------------  ---------------      ----- ------------  ---------------
     1      1.053902  1 H  s                  7      1.053902  2 H  s          
     2     -0.886204  1 H  s                  8     -0.886204  2 H  s          
     6     -0.577020  1 H  pz                12      0.577020  2 H  pz         
     3      0.298349  1 H  s                  9      0.298349  2 H  s          


 center of mass
 --------------
 x =   0.00000000 y =   0.00000000 z =   0.00000000

 moments of inertia (a.u.)
 ------------------
           0.737076815904           0.000000000000           0.000000000000
           0.000000000000           0.737076815904           0.000000000000
           0.000000000000           0.000000000000           0.000000000000

  Mulliken analysis of the total density
  --------------------------------------

    Atom       Charge   Shell Charges
 -----------   ------   -------------------------------------------------------
    1 H    1     1.00   0.28  0.52  0.19  0.01
    2 H    1     1.00   0.28  0.52  0.19  0.01

       Multipole analysis of the density wrt the origin
       ------------------------------------------------

     L   x y z        total         open         nuclear
     -   - - -        -----         ----         -------
     0   0 0 0     -0.000000      0.000000      2.000000

     1   1 0 0      0.000000      0.000000      0.000000
     1   0 1 0      0.000000      0.000000      0.000000
     1   0 0 1      0.000000      0.000000      0.000000

     2   2 0 0     -1.431861      0.000000      0.000000
     2   1 1 0     -0.000000      0.000000      0.000000
     2   1 0 1     -0.000000      0.000000      0.000000
     2   0 2 0     -1.431861      0.000000      0.000000
     2   0 1 1     -0.000000      0.000000      0.000000
     2   0 0 2     -1.087019      0.000000      0.731354

                              NWChem Gradients Module
                              -----------------------



  wavefunction    =   RHF     



                         RHF ENERGY GRADIENTS

    atom               coordinates                        gradient
                 x          y          z           x          y          z
   1 H       0.000000   0.000000  -0.604712   -0.000000  -0.000000   0.099592
   2 H       0.000000   0.000000   0.604712    0.000000   0.000000  -0.099592

                 ----------------------------------------
                 |  Time  |  1-e(secs)   |  2-e(secs)   |
                 ----------------------------------------
                 |  CPU   |       0.00   |       0.00   |
                 ----------------------------------------
                 |  WALL  |       0.00   |       0.00   |
                 ----------------------------------------

@ Step       Energy      Delta E   Gmax     Grms     Xrms     Xmax   Walltime
@ ---- ---------------- -------- -------- -------- -------- -------- --------
@    0      -1.12440509  0.0D+00  0.09959  0.09959  0.00000  0.00000      0.3
                                                                    



                                Z-matrix (autoz)
                                -------- 

 Units are Angstrom for bonds and degrees for angles

      Type          Name      I     J     K     L     M      Value     Gradient
      ----------- --------  ----- ----- ----- ----- ----- ---------- ----------
    1 Stretch                  1     2                       0.64000   -0.09959

                                 NWChem SCF Module
                                 -----------------



  ao basis        = "ao basis"
  functions       =    12
  atoms           =     2
  closed shells   =     1
  open shells     =     0
  charge          =   0.00
  wavefunction    = RHF 
  input vectors   = ./H2.movecs
  output vectors  = ./H2.movecs
  use symmetry    = F
  symmetry adapt  = F


 Summary of "ao basis" -> "ao basis" (cartesian)
 ------------------------------------------------------------------------------
       Tag                 Description            Shells   Functions and Types
 ---------------- ------------------------------  ------  ---------------------
 H                          6-311G**                 4        6   3s1p



 Forming initial guess at       0.3s


 Loading old vectors from job with title :




 Starting SCF solution at       0.3s



 ----------------------------------------------
         Quadratically convergent ROHF

 Convergence threshold     :          1.000E-04
 Maximum no. of iterations :          100
 Final Fock-matrix accuracy:          1.000E-07
 ----------------------------------------------


              iter       energy          gnorm     gmax       time
             ----- ------------------- --------- --------- --------
                 1       -1.1282055566  2.26D-01  1.76D-01      0.1
                 2       -1.1315087084  2.75D-02  2.08D-02      0.1
                 3       -1.1315796924  3.99D-05  3.68D-05      0.1


       Final RHF  results 
       ------------------ 

         Total SCF energy =     -1.131579692418
      One-electron energy =     -2.463401093002
      Two-electron energy =      0.646767385199
 Nuclear repulsion energy =      0.685054015386

        Time for solution =      0.0s


             Final eigenvalues
             -----------------

              1      
    1   -0.5849
    2    0.1618
    3    0.3094
    4    0.6335
    5    1.3292
    6    1.3292
    7    1.7996
    8    2.0757
    9    2.0757
   10    2.2602
   11    2.7116

                       ROHF Final Molecular Orbital Analysis
                       -------------------------------------

 Vector    1  Occ=2.000000D+00  E=-5.849332D-01
              MO Center=  3.0D-18, -1.7D-17, -3.2D-16, r^2= 7.5D-01
   Bfn.  Coefficient  Atom+Function         Bfn.  Coefficient  Atom+Function  
  ----- ------------  ---------------      ----- ------------  ---------------
     2      0.289400  1 H  s                  8      0.289400  2 H  s          
     1      0.181855  1 H  s                  7      0.181855  2 H  s          

 Vector    2  Occ=0.000000D+00  E= 1.618278D-01
              MO Center= -8.0D-20,  4.6D-19, -4.4D-16, r^2= 3.4D+00
   Bfn.  Coefficient  Atom+Function         Bfn.  Coefficient  Atom+Function  
  ----- ------------  ---------------      ----- ------------  ---------------
     3      2.225283  1 H  s                  9     -2.225283  2 H  s          

 Vector    3  Occ=0.000000D+00  E= 3.094322D-01
              MO Center= -5.8D-18, -2.0D-18, -2.1D-15, r^2= 3.3D+00
   Bfn.  Coefficient  Atom+Function         Bfn.  Coefficient  Atom+Function  
  ----- ------------  ---------------      ----- ------------  ---------------
     3      0.852708  1 H  s                  9      0.852708  2 H  s          
     2     -0.726671  1 H  s                  8     -0.726671  2 H  s          

 Vector    4  Occ=0.000000D+00  E= 6.335178D-01
              MO Center= -3.2D-19,  1.8D-18,  1.4D-15, r^2= 2.3D+00
   Bfn.  Coefficient  Atom+Function         Bfn.  Coefficient  Atom+Function  
  ----- ------------  ---------------      ----- ------------  ---------------
     3      2.200094  1 H  s                  9     -2.200094  2 H  s          
     2     -1.888978  1 H  s                  8      1.888978  2 H  s          

 Vector    5  Occ=0.000000D+00  E= 1.329184D+00
              MO Center=  3.5D-18,  1.6D-16,  9.7D-16, r^2= 5.7D-01
   Bfn.  Coefficient  Atom+Function         Bfn.  Coefficient  Atom+Function  
  ----- ------------  ---------------      ----- ------------  ---------------
     5      0.587133  1 H  py                11      0.587133  2 H  py         

 Vector    6  Occ=0.000000D+00  E= 1.329184D+00
              MO Center= -6.4D-17,  1.4D-18, -9.3D-16, r^2= 5.7D-01
   Bfn.  Coefficient  Atom+Function         Bfn.  Coefficient  Atom+Function  
  ----- ------------  ---------------      ----- ------------  ---------------
     4      0.587133  1 H  px                10      0.587133  2 H  px         

 Vector    7  Occ=0.000000D+00  E= 1.799618D+00
              MO Center= -1.1D-17, -1.3D-16, -2.2D-16, r^2= 1.0D+00
   Bfn.  Coefficient  Atom+Function         Bfn.  Coefficient  Atom+Function  
  ----- ------------  ---------------      ----- ------------  ---------------
     2      0.708185  1 H  s                  8      0.708185  2 H  s          
     6     -0.597845  1 H  pz                12      0.597845  2 H  pz         
     3     -0.347722  1 H  s                  9     -0.347722  2 H  s          
     1     -0.309072  1 H  s                  7     -0.309072  2 H  s          

 Vector    8  Occ=0.000000D+00  E= 2.075667D+00
              MO Center= -3.0D-19,  5.7D-19, -1.1D-15, r^2= 7.4D-01
   Bfn.  Coefficient  Atom+Function         Bfn.  Coefficient  Atom+Function  
  ----- ------------  ---------------      ----- ------------  ---------------
     5      0.839998  1 H  py                11     -0.839998  2 H  py         
     4     -0.450644  1 H  px                10      0.450644  2 H  px         

 Vector    9  Occ=0.000000D+00  E= 2.075667D+00
              MO Center=  1.9D-19,  1.0D-19,  1.1D-15, r^2= 7.4D-01
   Bfn.  Coefficient  Atom+Function         Bfn.  Coefficient  Atom+Function  
  ----- ------------  ---------------      ----- ------------  ---------------
     4      0.839998  1 H  px                10     -0.839998  2 H  px         
     5      0.450644  1 H  py                11     -0.450644  2 H  py         

 Vector   10  Occ=0.000000D+00  E= 2.260168D+00
              MO Center=  5.0D-19, -2.9D-18,  5.1D-16, r^2= 1.4D+00
   Bfn.  Coefficient  Atom+Function         Bfn.  Coefficient  Atom+Function  
  ----- ------------  ---------------      ----- ------------  ---------------
     2      3.283872  1 H  s                  8     -3.283872  2 H  s          
     3     -1.518635  1 H  s                  9      1.518635  2 H  s          
     6      1.343064  1 H  pz                12      1.343064  2 H  pz         
     1     -0.649328  1 H  s                  7      0.649328  2 H  s          

 Vector   11  Occ=0.000000D+00  E= 2.711624D+00
              MO Center=  2.4D-16, -7.7D-17,  1.4D-16, r^2= 7.9D-01
   Bfn.  Coefficient  Atom+Function         Bfn.  Coefficient  Atom+Function  
  ----- ------------  ---------------      ----- ------------  ---------------
     1      1.096007  1 H  s                  7      1.096007  2 H  s          
     2     -1.001025  1 H  s                  8     -1.001025  2 H  s          
     6     -0.365878  1 H  pz                12      0.365878  2 H  pz         
     3      0.355818  1 H  s                  9      0.355818  2 H  s          


 center of mass
 --------------
 x =   0.00000000 y =   0.00000000 z =   0.00000000

 moments of inertia (a.u.)
 ------------------
           1.073755741455           0.000000000000           0.000000000000
           0.000000000000           1.073755741455           0.000000000000
           0.000000000000           0.000000000000           0.000000000000

  Mulliken analysis of the total density
  --------------------------------------

    Atom       Charge   Shell Charges
 -----------   ------   -------------------------------------------------------
    1 H    1     1.00   0.24  0.53  0.22  0.01
    2 H    1     1.00   0.24  0.53  0.22  0.01

       Multipole analysis of the density wrt the origin
       ------------------------------------------------

     L   x y z        total         open         nuclear
     -   - - -        -----         ----         -------
     0   0 0 0     -0.000000      0.000000      2.000000

     1   1 0 0     -0.000000      0.000000      0.000000
     1   0 1 0      0.000000      0.000000      0.000000
     1   0 0 1      0.000000      0.000000      0.000000

     2   2 0 0     -1.583456      0.000000      0.000000
     2   1 1 0     -0.000000      0.000000      0.000000
     2   1 0 1     -0.000000      0.000000      0.000000
     2   0 2 0     -1.583456      0.000000      0.000000
     2   0 1 1     -0.000000      0.000000      0.000000
     2   0 0 2     -1.117248      0.000000      1.065419

 Line search: 
     step= 1.00 grad=-2.5D-02 hess= 1.8D-02 energy=     -1.131580 mode=downhill
 new step= 0.70                   predicted energy=     -1.133156

          --------
          Step   1
          --------


                         Geometry "geometry" -> "geometry"
                         ---------------------------------

 Output coordinates in angstroms (scale by  1.889725989 to convert to a.u.)

  No.       Tag          Charge          X              Y              Z
 ---- ---------------- ---------- -------------- -------------- --------------
    1 H                    1.0000     0.00000000     0.00000000    -0.36649677
    2 H                    1.0000     0.00000000     0.00000000     0.36649677

      Atomic Mass 
      ----------- 

      H                  1.007825


 Effective nuclear repulsion energy (a.u.)       0.7219398544

            Nuclear Dipole moment (a.u.) 
            ----------------------------
        X                 Y               Z
 ---------------- ---------------- ----------------
     0.0000000000     0.0000000000     0.0000000000

                                 NWChem SCF Module
                                 -----------------



  ao basis        = "ao basis"
  functions       =    12
  atoms           =     2
  closed shells   =     1
  open shells     =     0
  charge          =   0.00
  wavefunction    = RHF 
  input vectors   = ./H2.movecs
  output vectors  = ./H2.movecs
  use symmetry    = F
  symmetry adapt  = F


 Summary of "ao basis" -> "ao basis" (cartesian)
 ------------------------------------------------------------------------------
       Tag                 Description            Shells   Functions and Types
 ---------------- ------------------------------  ------  ---------------------
 H                          6-311G**                 4        6   3s1p



 Forming initial guess at       0.3s


 Loading old vectors from job with title :




 Starting SCF solution at       0.3s



 ----------------------------------------------
         Quadratically convergent ROHF

 Convergence threshold     :          1.000E-04
 Maximum no. of iterations :          100
 Final Fock-matrix accuracy:          1.000E-07
 ----------------------------------------------


              iter       energy          gnorm     gmax       time
             ----- ------------------- --------- --------- --------
                 1       -1.1322229969  6.13D-02  4.77D-02      0.1
                 2       -1.1324854457  2.64D-03  2.16D-03      0.1
                 3       -1.1324864405  7.93D-07  6.52D-07      0.1


       Final RHF  results 
       ------------------ 

         Total SCF energy =     -1.132486440539
      One-electron energy =     -2.515091605468
      Two-electron energy =      0.660665310544
 Nuclear repulsion energy =      0.721939854385

        Time for solution =      0.0s


             Final eigenvalues
             -----------------

              1      
    1   -0.5969
    2    0.1673
    3    0.3062
    4    0.6467
    5    1.3333
    6    1.3333
    7    1.8220
    8    2.1036
    9    2.1036
   10    2.1939
   11    2.7094

                       ROHF Final Molecular Orbital Analysis
                       -------------------------------------

 Vector    1  Occ=2.000000D+00  E=-5.968805D-01
              MO Center= -2.6D-20, -1.7D-17, -2.6D-16, r^2= 7.2D-01
   Bfn.  Coefficient  Atom+Function         Bfn.  Coefficient  Atom+Function  
  ----- ------------  ---------------      ----- ------------  ---------------
     2      0.287721  1 H  s                  8      0.287721  2 H  s          
     1      0.186419  1 H  s                  7      0.186419  2 H  s          

 Vector    2  Occ=0.000000D+00  E= 1.673427D-01
              MO Center=  6.8D-22,  4.2D-19, -1.6D-15, r^2= 3.5D+00
   Bfn.  Coefficient  Atom+Function         Bfn.  Coefficient  Atom+Function  
  ----- ------------  ---------------      ----- ------------  ---------------
     3      2.381756  1 H  s                  9     -2.381756  2 H  s          
     2     -0.195717  1 H  s                  8      0.195717  2 H  s          

 Vector    3  Occ=0.000000D+00  E= 3.062037D-01
              MO Center=  1.3D-17, -6.6D-18, -2.1D-15, r^2= 3.3D+00
   Bfn.  Coefficient  Atom+Function         Bfn.  Coefficient  Atom+Function  
  ----- ------------  ---------------      ----- ------------  ---------------
     3      0.846542  1 H  s                  9      0.846542  2 H  s          
     2     -0.709547  1 H  s                  8     -0.709547  2 H  s          

 Vector    4  Occ=0.000000D+00  E= 6.466745D-01
              MO Center=  3.0D-21,  1.9D-18,  3.3D-15, r^2= 2.3D+00
   Bfn.  Coefficient  Atom+Function         Bfn.  Coefficient  Atom+Function  
  ----- ------------  ---------------      ----- ------------  ---------------
     3      2.300391  1 H  s                  9     -2.300391  2 H  s          
     2     -2.055098  1 H  s                  8      2.055098  2 H  s          
     6     -0.169255  1 H  pz                12     -0.169255  2 H  pz         

 Vector    5  Occ=0.000000D+00  E= 1.333298D+00
              MO Center= -1.5D-16, -1.3D-17,  3.5D-16, r^2= 5.6D-01
   Bfn.  Coefficient  Atom+Function         Bfn.  Coefficient  Atom+Function  
  ----- ------------  ---------------      ----- ------------  ---------------
     4      0.577897  1 H  px                10      0.577897  2 H  px         

 Vector    6  Occ=0.000000D+00  E= 1.333298D+00
              MO Center= -1.1D-17,  1.3D-16, -4.2D-17, r^2= 5.6D-01
   Bfn.  Coefficient  Atom+Function         Bfn.  Coefficient  Atom+Function  
  ----- ------------  ---------------      ----- ------------  ---------------
     5      0.577897  1 H  py                11      0.577897  2 H  py         

 Vector    7  Occ=0.000000D+00  E= 1.821999D+00
              MO Center=  1.9D-16, -9.9D-18,  3.9D-16, r^2= 1.0D+00
   Bfn.  Coefficient  Atom+Function         Bfn.  Coefficient  Atom+Function  
  ----- ------------  ---------------      ----- ------------  ---------------
     2      0.738741  1 H  s                  8      0.738741  2 H  s          
     6     -0.592214  1 H  pz                12      0.592214  2 H  pz         
     3     -0.360267  1 H  s                  9     -0.360267  2 H  s          
     1     -0.337490  1 H  s                  7     -0.337490  2 H  s          

 Vector    8  Occ=0.000000D+00  E= 2.103571D+00
              MO Center=  8.6D-19,  5.7D-19,  3.5D-31, r^2= 7.3D-01
   Bfn.  Coefficient  Atom+Function         Bfn.  Coefficient  Atom+Function  
  ----- ------------  ---------------      ----- ------------  ---------------
     4      0.824020  1 H  px                10     -0.824020  2 H  px         
     5      0.543732  1 H  py                11     -0.543732  2 H  py         

 Vector    9  Occ=0.000000D+00  E= 2.103571D+00
              MO Center= -8.6D-19,  1.3D-18,  2.8D-17, r^2= 7.3D-01
   Bfn.  Coefficient  Atom+Function         Bfn.  Coefficient  Atom+Function  
  ----- ------------  ---------------      ----- ------------  ---------------
     5      0.824020  1 H  py                11     -0.824020  2 H  py         
     4     -0.543732  1 H  px                10      0.543732  2 H  px         

 Vector   10  Occ=0.000000D+00  E= 2.193871D+00
              MO Center= -6.6D-21, -4.1D-18,  2.3D-15, r^2= 1.5D+00
   Bfn.  Coefficient  Atom+Function         Bfn.  Coefficient  Atom+Function  
  ----- ------------  ---------------      ----- ------------  ---------------
     2      3.516468  1 H  s                  8     -3.516468  2 H  s          
     3     -1.608645  1 H  s                  9      1.608645  2 H  s          
     6      1.439267  1 H  pz                12      1.439267  2 H  pz         
     1     -0.546632  1 H  s                  7      0.546632  2 H  s          

 Vector   11  Occ=0.000000D+00  E= 2.709363D+00
              MO Center=  6.7D-18, -9.1D-17, -1.7D-15, r^2= 7.7D-01
   Bfn.  Coefficient  Atom+Function         Bfn.  Coefficient  Atom+Function  
  ----- ------------  ---------------      ----- ------------  ---------------
     1      1.085810  1 H  s                  7      1.085810  2 H  s          
     2     -0.969466  1 H  s                  8     -0.969466  2 H  s          
     6     -0.422590  1 H  pz                12      0.422590  2 H  pz         
     3      0.339866  1 H  s                  9      0.339866  2 H  s          


 center of mass
 --------------
 x =   0.00000000 y =   0.00000000 z =   0.00000000

 moments of inertia (a.u.)
 ------------------
           0.966836631324           0.000000000000           0.000000000000
           0.000000000000           0.966836631324           0.000000000000
           0.000000000000           0.000000000000           0.000000000000

  Mulliken analysis of the total density
  --------------------------------------

    Atom       Charge   Shell Charges
 -----------   ------   -------------------------------------------------------
    1 H    1     1.00   0.25  0.53  0.21  0.01
    2 H    1     1.00   0.25  0.53  0.21  0.01

       Multipole analysis of the density wrt the origin
       ------------------------------------------------

     L   x y z        total         open         nuclear
     -   - - -        -----         ----         -------
     0   0 0 0      0.000000      0.000000      2.000000

     1   1 0 0      0.000000      0.000000      0.000000
     1   0 1 0      0.000000      0.000000      0.000000
     1   0 0 1      0.000000      0.000000      0.000000

     2   2 0 0     -1.538745      0.000000      0.000000
     2   1 1 0     -0.000000      0.000000      0.000000
     2   1 0 1     -0.000000      0.000000      0.000000
     2   0 2 0     -1.538745      0.000000      0.000000
     2   0 1 1     -0.000000      0.000000      0.000000
     2   0 0 2     -1.109200      0.000000      0.959330

                              NWChem Gradients Module
                              -----------------------



  wavefunction    =   RHF     



                         RHF ENERGY GRADIENTS

    atom               coordinates                        gradient
                 x          y          z           x          y          z
   1 H       0.000000   0.000000  -0.692578   -0.000000  -0.000000   0.001907
   2 H       0.000000   0.000000   0.692578    0.000000   0.000000  -0.001907

                 ----------------------------------------
                 |  Time  |  1-e(secs)   |  2-e(secs)   |
                 ----------------------------------------
                 |  CPU   |       0.00   |       0.00   |
                 ----------------------------------------
                 |  WALL  |       0.00   |       0.00   |
                 ----------------------------------------

  Step       Energy      Delta E   Gmax     Grms     Xrms     Xmax   Walltime
  ---- ---------------- -------- -------- -------- -------- -------- --------
@    1      -1.13248644 -8.1D-03  0.00191  0.00191  0.05073  0.08787      0.3
                                                                    



                                Z-matrix (autoz)
                                -------- 

 Units are Angstrom for bonds and degrees for angles

      Type          Name      I     J     K     L     M      Value     Gradient
      ----------- --------  ----- ----- ----- ----- ----- ---------- ----------
    1 Stretch                  1     2                       0.73299   -0.00191

                                 NWChem SCF Module
                                 -----------------



  ao basis        = "ao basis"
  functions       =    12
  atoms           =     2
  closed shells   =     1
  open shells     =     0
  charge          =   0.00
  wavefunction    = RHF 
  input vectors   = ./H2.movecs
  output vectors  = ./H2.movecs
  use symmetry    = F
  symmetry adapt  = F


 Summary of "ao basis" -> "ao basis" (cartesian)
 ------------------------------------------------------------------------------
       Tag                 Description            Shells   Functions and Types
 ---------------- ------------------------------  ------  ---------------------
 H                          6-311G**                 4        6   3s1p



 Forming initial guess at       0.3s


 Loading old vectors from job with title :




 Starting SCF solution at       0.3s



 ----------------------------------------------
         Quadratically convergent ROHF

 Convergence threshold     :          1.000E-04
 Maximum no. of iterations :          100
 Final Fock-matrix accuracy:          1.000E-07
 ----------------------------------------------


              iter       energy          gnorm     gmax       time
             ----- ------------------- --------- --------- --------
                 1       -1.1324899997  2.92D-03  2.26D-03      0.1
                 2       -1.1324905854  9.18D-07  7.15D-07      0.1


       Final RHF  results 
       ------------------ 

         Total SCF energy =     -1.132490585410
      One-electron energy =     -2.512659152565
      Two-electron energy =      0.660012241758
 Nuclear repulsion energy =      0.720156325398

        Time for solution =      0.0s


             Final eigenvalues
             -----------------

              1      
    1   -0.5963
    2    0.1671
    3    0.3064
    4    0.6461
    5    1.3331
    6    1.3331
    7    1.8210
    8    2.1023
    9    2.1023
   10    2.1968
   11    2.7095

                       ROHF Final Molecular Orbital Analysis
                       -------------------------------------

 Vector    1  Occ=2.000000D+00  E=-5.963173D-01
              MO Center=  1.2D-20, -1.7D-17, -2.5D-16, r^2= 7.2D-01
   Bfn.  Coefficient  Atom+Function         Bfn.  Coefficient  Atom+Function  
  ----- ------------  ---------------      ----- ------------  ---------------
     2      0.287808  1 H  s                  8      0.287808  2 H  s          
     1      0.186201  1 H  s                  7      0.186201  2 H  s          

 Vector    2  Occ=0.000000D+00  E= 1.670973D-01
              MO Center= -3.1D-22,  4.2D-19,  9.3D-16, r^2= 3.5D+00
   Bfn.  Coefficient  Atom+Function         Bfn.  Coefficient  Atom+Function  
  ----- ------------  ---------------      ----- ------------  ---------------
     3      2.374182  1 H  s                  9     -2.374182  2 H  s          
     2     -0.193295  1 H  s                  8      0.193295  2 H  s          

 Vector    3  Occ=0.000000D+00  E= 3.063516D-01
              MO Center= -8.0D-18, -4.6D-18, -1.5D-15, r^2= 3.3D+00
   Bfn.  Coefficient  Atom+Function         Bfn.  Coefficient  Atom+Function  
  ----- ------------  ---------------      ----- ------------  ---------------
     3      0.846827  1 H  s                  9      0.846827  2 H  s          
     2     -0.710339  1 H  s                  8     -0.710339  2 H  s          

 Vector    4  Occ=0.000000D+00  E= 6.460802D-01
              MO Center= -1.4D-21,  1.9D-18,  2.7D-15, r^2= 2.3D+00
   Bfn.  Coefficient  Atom+Function         Bfn.  Coefficient  Atom+Function  
  ----- ------------  ---------------      ----- ------------  ---------------
     3      2.295415  1 H  s                  9     -2.295415  2 H  s          
     2     -2.046861  1 H  s                  8      2.046861  2 H  s          
     6     -0.167311  1 H  pz                12     -0.167311  2 H  pz         

 Vector    5  Occ=0.000000D+00  E= 1.333085D+00
              MO Center=  5.4D-18,  9.9D-19, -6.2D-16, r^2= 5.6D-01
   Bfn.  Coefficient  Atom+Function         Bfn.  Coefficient  Atom+Function  
  ----- ------------  ---------------      ----- ------------  ---------------
     4      0.570479  1 H  px                10      0.570479  2 H  px         

 Vector    6  Occ=0.000000D+00  E= 1.333085D+00
              MO Center= -5.2D-18,  2.8D-17, -1.4D-16, r^2= 5.6D-01
   Bfn.  Coefficient  Atom+Function         Bfn.  Coefficient  Atom+Function  
  ----- ------------  ---------------      ----- ------------  ---------------
     5      0.570479  1 H  py                11      0.570479  2 H  py         

 Vector    7  Occ=0.000000D+00  E= 1.821035D+00
              MO Center=  7.4D-18, -9.8D-17, -9.7D-16, r^2= 1.0D+00
   Bfn.  Coefficient  Atom+Function         Bfn.  Coefficient  Atom+Function  
  ----- ------------  ---------------      ----- ------------  ---------------
     2      0.737343  1 H  s                  8      0.737343  2 H  s          
     6     -0.592500  1 H  pz                12      0.592500  2 H  pz         
     3     -0.359698  1 H  s                  9     -0.359698  2 H  s          
     1     -0.336171  1 H  s                  7     -0.336171  2 H  s          

 Vector    8  Occ=0.000000D+00  E= 2.102286D+00
              MO Center= -6.3D-19,  2.6D-19,  8.0D-16, r^2= 7.3D-01
   Bfn.  Coefficient  Atom+Function         Bfn.  Coefficient  Atom+Function  
  ----- ------------  ---------------      ----- ------------  ---------------
     4      0.909055  1 H  px                10     -0.909055  2 H  px         
     5     -0.380772  1 H  py                11      0.380772  2 H  py         

 Vector    9  Occ=0.000000D+00  E= 2.102286D+00
              MO Center=  6.3D-19,  1.5D-18,  5.0D-16, r^2= 7.3D-01
   Bfn.  Coefficient  Atom+Function         Bfn.  Coefficient  Atom+Function  
  ----- ------------  ---------------      ----- ------------  ---------------
     5      0.909055  1 H  py                11     -0.909055  2 H  py         
     4      0.380772  1 H  px                10     -0.380772  2 H  px         

 Vector   10  Occ=0.000000D+00  E= 2.196783D+00
              MO Center=  2.9D-21, -4.0D-18,  3.5D-15, r^2= 1.5D+00
   Bfn.  Coefficient  Atom+Function         Bfn.  Coefficient  Atom+Function  
  ----- ------------  ---------------      ----- ------------  ---------------
     2      3.505856  1 H  s                  8     -3.505856  2 H  s          
     3     -1.604438  1 H  s                  9      1.604438  2 H  s          
     6      1.435423  1 H  pz                12      1.435423  2 H  pz         
     1     -0.551375  1 H  s                  7      0.551375  2 H  s          

 Vector   11  Occ=0.000000D+00  E= 2.709503D+00
              MO Center=  5.2D-18,  1.5D-16, -4.3D-15, r^2= 7.7D-01
   Bfn.  Coefficient  Atom+Function         Bfn.  Coefficient  Atom+Function  
  ----- ------------  ---------------      ----- ------------  ---------------
     1      1.086321  1 H  s                  7      1.086321  2 H  s          
     2     -0.970968  1 H  s                  8     -0.970968  2 H  s          
     6     -0.419876  1 H  pz                12      0.419876  2 H  pz         
     3      0.340623  1 H  s                  9      0.340623  2 H  s          


 center of mass
 --------------
 x =   0.00000000 y =   0.00000000 z =   0.00000000

 moments of inertia (a.u.)
 ------------------
           0.971631469294           0.000000000000           0.000000000000
           0.000000000000           0.971631469294           0.000000000000
           0.000000000000           0.000000000000           0.000000000000

  Mulliken analysis of the total density
  --------------------------------------

    Atom       Charge   Shell Charges
 -----------   ------   -------------------------------------------------------
    1 H    1     1.00   0.25  0.53  0.21  0.01
    2 H    1     1.00   0.25  0.53  0.21  0.01

       Multipole analysis of the density wrt the origin
       ------------------------------------------------

     L   x y z        total         open         nuclear
     -   - - -        -----         ----         -------
     0   0 0 0      0.000000      0.000000      2.000000

     1   1 0 0     -0.000000      0.000000      0.000000
     1   0 1 0      0.000000      0.000000      0.000000
     1   0 0 1      0.000000      0.000000      0.000000

     2   2 0 0     -1.540808      0.000000      0.000000
     2   1 1 0     -0.000000      0.000000      0.000000
     2   1 0 1     -0.000000      0.000000      0.000000
     2   0 2 0     -1.540808      0.000000      0.000000
     2   0 1 1     -0.000000      0.000000      0.000000
     2   0 0 2     -1.109585      0.000000      0.964087

 Line search: 
     step= 1.00 grad=-6.5D-06 hess= 2.4D-06 energy=     -1.132491 mode=downhill
 new step= 1.36                   predicted energy=     -1.132491

          --------
          Step   2
          --------


                         Geometry "geometry" -> "geometry"
                         ---------------------------------

 Output coordinates in angstroms (scale by  1.889725989 to convert to a.u.)

  No.       Tag          Charge          X              Y              Z
 ---- ---------------- ---------- -------------- -------------- --------------
    1 H                    1.0000     0.00000000     0.00000000    -0.36773545
    2 H                    1.0000     0.00000000     0.00000000     0.36773545

      Atomic Mass 
      ----------- 

      H                  1.007825


 Effective nuclear repulsion energy (a.u.)       0.7195080691

            Nuclear Dipole moment (a.u.) 
            ----------------------------
        X                 Y               Z
 ---------------- ---------------- ----------------
     0.0000000000     0.0000000000     0.0000000000

                                 NWChem SCF Module
                                 -----------------



  ao basis        = "ao basis"
  functions       =    12
  atoms           =     2
  closed shells   =     1
  open shells     =     0
  charge          =   0.00
  wavefunction    = RHF 
  input vectors   = ./H2.movecs
  output vectors  = ./H2.movecs
  use symmetry    = F
  symmetry adapt  = F


 Summary of "ao basis" -> "ao basis" (cartesian)
 ------------------------------------------------------------------------------
       Tag                 Description            Shells   Functions and Types
 ---------------- ------------------------------  ------  ---------------------
 H                          6-311G**                 4        6   3s1p



 Forming initial guess at       0.4s


 Loading old vectors from job with title :




 Starting SCF solution at       0.4s



 ----------------------------------------------
         Quadratically convergent ROHF

 Convergence threshold     :          1.000E-04
 Maximum no. of iterations :          100
 Final Fock-matrix accuracy:          1.000E-07
 ----------------------------------------------


              iter       energy          gnorm     gmax       time
             ----- ------------------- --------- --------- --------
                 1       -1.1324908327  1.06D-03  8.23D-04      0.1
                 2       -1.1324909104  3.38D-07  2.40D-07      0.1


       Final RHF  results 
       ------------------ 

         Total SCF energy =     -1.132490910428
      One-electron energy =     -2.511773301458
      Two-electron energy =      0.659774321939
 Nuclear repulsion energy =      0.719508069091

        Time for solution =      0.0s


             Final eigenvalues
             -----------------

              1      
    1   -0.5961
    2    0.1670
    3    0.3064
    4    0.6459
    5    1.3330
    6    1.3330
    7    1.8207
    8    2.1018
    9    2.1018
   10    2.1978
   11    2.7096

                       ROHF Final Molecular Orbital Analysis
                       -------------------------------------

 Vector    1  Occ=2.000000D+00  E=-5.961123D-01
              MO Center=  3.4D-20, -1.7D-17, -2.9D-16, r^2= 7.2D-01
   Bfn.  Coefficient  Atom+Function         Bfn.  Coefficient  Atom+Function  
  ----- ------------  ---------------      ----- ------------  ---------------
     2      0.287840  1 H  s                  8      0.287840  2 H  s          
     1      0.186121  1 H  s                  7      0.186121  2 H  s          

 Vector    2  Occ=0.000000D+00  E= 1.670075D-01
              MO Center= -8.7D-22,  4.3D-19,  6.2D-15, r^2= 3.5D+00
   Bfn.  Coefficient  Atom+Function         Bfn.  Coefficient  Atom+Function  
  ----- ------------  ---------------      ----- ------------  ---------------
     3      2.371429  1 H  s                  9     -2.371429  2 H  s          
     2     -0.192415  1 H  s                  8      0.192415  2 H  s          

 Vector    3  Occ=0.000000D+00  E= 3.064056D-01
              MO Center= -9.7D-18,  2.2D-18, -8.0D-15, r^2= 3.3D+00
   Bfn.  Coefficient  Atom+Function         Bfn.  Coefficient  Atom+Function  
  ----- ------------  ---------------      ----- ------------  ---------------
     3      0.846931  1 H  s                  9      0.846931  2 H  s          
     2     -0.710627  1 H  s                  8     -0.710627  2 H  s          

 Vector    4  Occ=0.000000D+00  E= 6.458632D-01
              MO Center= -3.8D-21,  1.9D-18,  2.0D-15, r^2= 2.3D+00
   Bfn.  Coefficient  Atom+Function         Bfn.  Coefficient  Atom+Function  
  ----- ------------  ---------------      ----- ------------  ---------------
     3      2.293609  1 H  s                  9     -2.293609  2 H  s          
     2     -2.043871  1 H  s                  8      2.043871  2 H  s          
     6     -0.166604  1 H  pz                12     -0.166604  2 H  pz         

 Vector    5  Occ=0.000000D+00  E= 1.333008D+00
              MO Center= -1.2D-16, -2.8D-17, -7.2D-16, r^2= 5.6D-01
   Bfn.  Coefficient  Atom+Function         Bfn.  Coefficient  Atom+Function  
  ----- ------------  ---------------      ----- ------------  ---------------
     4      0.565913  1 H  px                10      0.565913  2 H  px         

 Vector    6  Occ=0.000000D+00  E= 1.333008D+00
              MO Center= -1.8D-17,  7.9D-17,  2.8D-17, r^2= 5.6D-01
   Bfn.  Coefficient  Atom+Function         Bfn.  Coefficient  Atom+Function  
  ----- ------------  ---------------      ----- ------------  ---------------
     5      0.565913  1 H  py                11      0.565913  2 H  py         

 Vector    7  Occ=0.000000D+00  E= 1.820682D+00
              MO Center= -5.4D-17, -8.5D-17,  1.7D-16, r^2= 1.0D+00
   Bfn.  Coefficient  Atom+Function         Bfn.  Coefficient  Atom+Function  
  ----- ------------  ---------------      ----- ------------  ---------------
     2      0.736833  1 H  s                  8      0.736833  2 H  s          
     6     -0.592603  1 H  pz                12      0.592603  2 H  pz         
     3     -0.359490  1 H  s                  9     -0.359490  2 H  s          
     1     -0.335691  1 H  s                  7     -0.335691  2 H  s          

 Vector    8  Occ=0.000000D+00  E= 2.101818D+00
              MO Center= -1.2D-20,  1.7D-18,  5.6D-17, r^2= 7.3D-01
   Bfn.  Coefficient  Atom+Function         Bfn.  Coefficient  Atom+Function  
  ----- ------------  ---------------      ----- ------------  ---------------
     5      0.984952  1 H  py                11     -0.984952  2 H  py         

 Vector    9  Occ=0.000000D+00  E= 2.101818D+00
              MO Center=  8.5D-21,  6.0D-23,  1.1D-15, r^2= 7.3D-01
   Bfn.  Coefficient  Atom+Function         Bfn.  Coefficient  Atom+Function  
  ----- ------------  ---------------      ----- ------------  ---------------
     4      0.984952  1 H  px                10     -0.984952  2 H  px         

 Vector   10  Occ=0.000000D+00  E= 2.197849D+00
              MO Center=  8.1D-21, -4.0D-18, -3.8D-15, r^2= 1.5D+00
   Bfn.  Coefficient  Atom+Function         Bfn.  Coefficient  Atom+Function  
  ----- ------------  ---------------      ----- ------------  ---------------
     2      3.501983  1 H  s                  8     -3.501983  2 H  s          
     3     -1.602905  1 H  s                  9      1.602905  2 H  s          
     6      1.434007  1 H  pz                12      1.434007  2 H  pz         
     1     -0.553104  1 H  s                  7      0.553104  2 H  s          

 Vector   11  Occ=0.000000D+00  E= 2.709553D+00
              MO Center=  2.4D-16,  5.5D-17,  4.7D-15, r^2= 7.7D-01
   Bfn.  Coefficient  Atom+Function         Bfn.  Coefficient  Atom+Function  
  ----- ------------  ---------------      ----- ------------  ---------------
     1      1.086506  1 H  s                  7      1.086506  2 H  s          
     2     -0.971515  1 H  s                  8     -0.971515  2 H  s          
     6     -0.418889  1 H  pz                12      0.418889  2 H  pz         
     3      0.340898  1 H  s                  9      0.340898  2 H  s          


 center of mass
 --------------
 x =   0.00000000 y =   0.00000000 z =   0.00000000

 moments of inertia (a.u.)
 ------------------
           0.973383082654           0.000000000000           0.000000000000
           0.000000000000           0.973383082654           0.000000000000
           0.000000000000           0.000000000000           0.000000000000

  Mulliken analysis of the total density
  --------------------------------------

    Atom       Charge   Shell Charges
 -----------   ------   -------------------------------------------------------
    1 H    1     1.00   0.25  0.53  0.21  0.01
    2 H    1     1.00   0.25  0.53  0.21  0.01

       Multipole analysis of the density wrt the origin
       ------------------------------------------------

     L   x y z        total         open         nuclear
     -   - - -        -----         ----         -------
     0   0 0 0     -0.000000      0.000000      2.000000

     1   1 0 0     -0.000000      0.000000      0.000000
     1   0 1 0      0.000000      0.000000      0.000000
     1   0 0 1      0.000000      0.000000      0.000000

     2   2 0 0     -1.541560      0.000000      0.000000
     2   1 1 0     -0.000000      0.000000      0.000000
     2   1 0 1     -0.000000      0.000000      0.000000
     2   0 2 0     -1.541560      0.000000      0.000000
     2   0 1 1     -0.000000      0.000000      0.000000
     2   0 0 2     -1.109726      0.000000      0.965825

                              NWChem Gradients Module
                              -----------------------



  wavefunction    =   RHF     



                         RHF ENERGY GRADIENTS

    atom               coordinates                        gradient
                 x          y          z           x          y          z
   1 H       0.000000   0.000000  -0.694919   -0.000000  -0.000000   0.000008
   2 H       0.000000   0.000000   0.694919    0.000000   0.000000  -0.000008

                 ----------------------------------------
                 |  Time  |  1-e(secs)   |  2-e(secs)   |
                 ----------------------------------------
                 |  CPU   |       0.00   |       0.00   |
                 ----------------------------------------
                 |  WALL  |       0.00   |       0.00   |
                 ----------------------------------------

  Step       Energy      Delta E   Gmax     Grms     Xrms     Xmax   Walltime
  ---- ---------------- -------- -------- -------- -------- -------- --------
@    2      -1.13249091 -4.5D-06  0.00001  0.00001  0.00135  0.00234      0.4
                                     ok       ok                    



                                Z-matrix (autoz)
                                -------- 

 Units are Angstrom for bonds and degrees for angles

      Type          Name      I     J     K     L     M      Value     Gradient
      ----------- --------  ----- ----- ----- ----- ----- ---------- ----------
    1 Stretch                  1     2                       0.73547   -0.00001

                                 NWChem SCF Module
                                 -----------------



  ao basis        = "ao basis"
  functions       =    12
  atoms           =     2
  closed shells   =     1
  open shells     =     0
  charge          =   0.00
  wavefunction    = RHF 
  input vectors   = ./H2.movecs
  output vectors  = ./H2.movecs
  use symmetry    = F
  symmetry adapt  = F


 Summary of "ao basis" -> "ao basis" (cartesian)
 ------------------------------------------------------------------------------
       Tag                 Description            Shells   Functions and Types
 ---------------- ------------------------------  ------  ---------------------
 H                          6-311G**                 4        6   3s1p



 Forming initial guess at       0.4s


 Loading old vectors from job with title :




 Starting SCF solution at       0.4s



 ----------------------------------------------
         Quadratically convergent ROHF

 Convergence threshold     :          1.000E-04
 Maximum no. of iterations :          100
 Final Fock-matrix accuracy:          1.000E-07
 ----------------------------------------------


              iter       energy          gnorm     gmax       time
             ----- ------------------- --------- --------- --------
                 1       -1.1324909105  1.59D-05  1.21D-05      0.1


       Final RHF  results 
       ------------------ 

         Total SCF energy =     -1.132490910483
      One-electron energy =     -2.511761856743
      Two-electron energy =      0.659772602112
 Nuclear repulsion energy =      0.719498344148

        Time for solution =      0.0s


             Final eigenvalues
             -----------------

              1      
    1   -0.5961
    2    0.1670
    3    0.3064
    4    0.6459
    5    1.3330
    6    1.3330
    7    1.8207
    8    2.1018
    9    2.1018
   10    2.1979
   11    2.7096

                       ROHF Final Molecular Orbital Analysis
                       -------------------------------------

 Vector    1  Occ=2.000000D+00  E=-5.961083D-01
              MO Center=  3.4D-20, -1.7D-17, -2.5D-16, r^2= 7.2D-01
   Bfn.  Coefficient  Atom+Function         Bfn.  Coefficient  Atom+Function  
  ----- ------------  ---------------      ----- ------------  ---------------
     2      0.287840  1 H  s                  8      0.287840  2 H  s          
     1      0.186122  1 H  s                  7      0.186122  2 H  s          

 Vector    2  Occ=0.000000D+00  E= 1.670066D-01
              MO Center= -8.7D-22,  4.3D-19,  1.3D-15, r^2= 3.5D+00
   Bfn.  Coefficient  Atom+Function         Bfn.  Coefficient  Atom+Function  
  ----- ------------  ---------------      ----- ------------  ---------------
     3      2.371390  1 H  s                  9     -2.371390  2 H  s          
     2     -0.192404  1 H  s                  8      0.192404  2 H  s          

 Vector    3  Occ=0.000000D+00  E= 3.064066D-01
              MO Center= -1.2D-18,  2.3D-18,  6.3D-16, r^2= 3.3D+00
   Bfn.  Coefficient  Atom+Function         Bfn.  Coefficient  Atom+Function  
  ----- ------------  ---------------      ----- ------------  ---------------
     3      0.846933  1 H  s                  9      0.846933  2 H  s          
     2     -0.710631  1 H  s                  8     -0.710631  2 H  s          

 Vector    4  Occ=0.000000D+00  E= 6.458608D-01
              MO Center= -3.8D-21,  1.9D-18, -6.0D-16, r^2= 2.3D+00
   Bfn.  Coefficient  Atom+Function         Bfn.  Coefficient  Atom+Function  
  ----- ------------  ---------------      ----- ------------  ---------------
     3      2.293580  1 H  s                  9     -2.293580  2 H  s          
     2     -2.043826  1 H  s                  8      2.043826  2 H  s          
     6     -0.166594  1 H  pz                12     -0.166594  2 H  pz         

 Vector    5  Occ=0.000000D+00  E= 1.333008D+00
              MO Center=  6.6D-18,  5.5D-18,  6.5D-16, r^2= 5.6D-01
   Bfn.  Coefficient  Atom+Function         Bfn.  Coefficient  Atom+Function  
  ----- ------------  ---------------      ----- ------------  ---------------
     4      0.444808  1 H  px                10      0.444808  2 H  px         
     5      0.372736  1 H  py                11      0.372736  2 H  py         

 Vector    6  Occ=0.000000D+00  E= 1.333008D+00
              MO Center= -6.3D-17,  7.5D-17, -1.5D-16, r^2= 5.6D-01
   Bfn.  Coefficient  Atom+Function         Bfn.  Coefficient  Atom+Function  
  ----- ------------  ---------------      ----- ------------  ---------------
     5      0.444808  1 H  py                11      0.444808  2 H  py         
     4     -0.372736  1 H  px                10     -0.372736  2 H  px         

 Vector    7  Occ=0.000000D+00  E= 1.820678D+00
              MO Center=  5.3D-17, -1.9D-16, -8.6D-16, r^2= 1.0D+00
   Bfn.  Coefficient  Atom+Function         Bfn.  Coefficient  Atom+Function  
  ----- ------------  ---------------      ----- ------------  ---------------
     2      0.736826  1 H  s                  8      0.736826  2 H  s          
     6     -0.592605  1 H  pz                12      0.592605  2 H  pz         
     3     -0.359487  1 H  s                  9     -0.359487  2 H  s          
     1     -0.335683  1 H  s                  7     -0.335683  2 H  s          

 Vector    8  Occ=0.000000D+00  E= 2.101812D+00
              MO Center= -9.0D-27, -1.8D-29, -4.5D-16, r^2= 7.3D-01
   Bfn.  Coefficient  Atom+Function         Bfn.  Coefficient  Atom+Function  
  ----- ------------  ---------------      ----- ------------  ---------------
     4      0.984965  1 H  px                10     -0.984965  2 H  px         

 Vector    9  Occ=0.000000D+00  E= 2.101812D+00
              MO Center= -3.5D-21,  1.7D-18,  2.3D-33, r^2= 7.3D-01
   Bfn.  Coefficient  Atom+Function         Bfn.  Coefficient  Atom+Function  
  ----- ------------  ---------------      ----- ------------  ---------------
     5      0.984965  1 H  py                11     -0.984965  2 H  py         

 Vector   10  Occ=0.000000D+00  E= 2.197866D+00
              MO Center=  8.1D-21, -4.0D-18,  3.8D-15, r^2= 1.5D+00
   Bfn.  Coefficient  Atom+Function         Bfn.  Coefficient  Atom+Function  
  ----- ------------  ---------------      ----- ------------  ---------------
     2      3.501925  1 H  s                  8     -3.501925  2 H  s          
     3     -1.602882  1 H  s                  9      1.602882  2 H  s          
     6      1.433986  1 H  pz                12      1.433986  2 H  pz         
     1     -0.553130  1 H  s                  7      0.553130  2 H  s          

 Vector   11  Occ=0.000000D+00  E= 2.709556D+00
              MO Center= -5.6D-17,  2.1D-16, -4.6D-15, r^2= 7.7D-01
   Bfn.  Coefficient  Atom+Function         Bfn.  Coefficient  Atom+Function  
  ----- ------------  ---------------      ----- ------------  ---------------
     1      1.086509  1 H  s                  7      1.086509  2 H  s          
     2     -0.971523  1 H  s                  8     -0.971523  2 H  s          
     6     -0.418874  1 H  pz                12      0.418874  2 H  pz         
     3      0.340902  1 H  s                  9      0.340902  2 H  s          


 center of mass
 --------------
 x =   0.00000000 y =   0.00000000 z =   0.00000000

 moments of inertia (a.u.)
 ------------------
           0.973409395875           0.000000000000           0.000000000000
           0.000000000000           0.973409395875           0.000000000000
           0.000000000000           0.000000000000           0.000000000000

  Mulliken analysis of the total density
  --------------------------------------

    Atom       Charge   Shell Charges
 -----------   ------   -------------------------------------------------------
    1 H    1     1.00   0.25  0.53  0.21  0.01
    2 H    1     1.00   0.25  0.53  0.21  0.01

       Multipole analysis of the density wrt the origin
       ------------------------------------------------

     L   x y z        total         open         nuclear
     -   - - -        -----         ----         -------
     0   0 0 0     -0.000000      0.000000      2.000000

     1   1 0 0     -0.000000      0.000000      0.000000
     1   0 1 0      0.000000      0.000000      0.000000
     1   0 0 1      0.000000      0.000000      0.000000

     2   2 0 0     -1.541562      0.000000      0.000000
     2   1 1 0     -0.000000      0.000000      0.000000
     2   1 0 1     -0.000000      0.000000      0.000000
     2   0 2 0     -1.541562      0.000000      0.000000
     2   0 1 1     -0.000000      0.000000      0.000000
     2   0 0 2     -1.109719      0.000000      0.965852

 Line search: 
     step= 1.00 grad=-1.4D-10 hess= 8.8D-11 energy=     -1.132491 mode=accept  
 new step= 1.00                   predicted energy=     -1.132491

          --------
          Step   3
          --------


                         Geometry "geometry" -> "geometry"
                         ---------------------------------

 Output coordinates in angstroms (scale by  1.889725989 to convert to a.u.)

  No.       Tag          Charge          X              Y              Z
 ---- ---------------- ---------- -------------- -------------- --------------
    1 H                    1.0000     0.00000000     0.00000000    -0.36774042
    2 H                    1.0000     0.00000000     0.00000000     0.36774042

      Atomic Mass 
      ----------- 

      H                  1.007825


 Effective nuclear repulsion energy (a.u.)       0.7194983441

            Nuclear Dipole moment (a.u.) 
            ----------------------------
        X                 Y               Z
 ---------------- ---------------- ----------------
     0.0000000000     0.0000000000     0.0000000000

                                 NWChem SCF Module
                                 -----------------



  ao basis        = "ao basis"
  functions       =    12
  atoms           =     2
  closed shells   =     1
  open shells     =     0
  charge          =   0.00
  wavefunction    = RHF 
  input vectors   = ./H2.movecs
  output vectors  = ./H2.movecs
  use symmetry    = F
  symmetry adapt  = F


 Summary of "ao basis" -> "ao basis" (cartesian)
 ------------------------------------------------------------------------------
       Tag                 Description            Shells   Functions and Types
 ---------------- ------------------------------  ------  ---------------------
 H                          6-311G**                 4        6   3s1p



  The SCF is already converged 

         Total SCF energy =     -1.132490910483

                              NWChem Gradients Module
                              -----------------------



  wavefunction    =   RHF     



                         RHF ENERGY GRADIENTS

    atom               coordinates                        gradient
                 x          y          z           x          y          z
   1 H       0.000000   0.000000  -0.694929   -0.000000  -0.000000  -0.000002
   2 H       0.000000   0.000000   0.694929    0.000000   0.000000   0.000002

                 ----------------------------------------
                 |  Time  |  1-e(secs)   |  2-e(secs)   |
                 ----------------------------------------
                 |  CPU   |       0.00   |       0.00   |
                 ----------------------------------------
                 |  WALL  |       0.00   |       0.00   |
                 ----------------------------------------

  Step       Energy      Delta E   Gmax     Grms     Xrms     Xmax   Walltime
  ---- ---------------- -------- -------- -------- -------- -------- --------
@    3      -1.13249091 -5.5D-11  0.00000  0.00000  0.00001  0.00001      0.4
                                     ok       ok       ok       ok  



                                Z-matrix (autoz)
                                -------- 

 Units are Angstrom for bonds and degrees for angles

      Type          Name      I     J     K     L     M      Value     Gradient
      ----------- --------  ----- ----- ----- ----- ----- ---------- ----------
    1 Stretch                  1     2                       0.73548    0.00000


      ----------------------
      Optimization converged
      ----------------------


  Step       Energy      Delta E   Gmax     Grms     Xrms     Xmax   Walltime
  ---- ---------------- -------- -------- -------- -------- -------- --------
@    3      -1.13249091 -5.5D-11  0.00000  0.00000  0.00001  0.00001      0.4
                                     ok       ok       ok       ok  



                                Z-matrix (autoz)
                                -------- 

 Units are Angstrom for bonds and degrees for angles

      Type          Name      I     J     K     L     M      Value     Gradient
      ----------- --------  ----- ----- ----- ----- ----- ---------- ----------
    1 Stretch                  1     2                       0.73548    0.00000



                         Geometry "geometry" -> "geometry"
                         ---------------------------------

 Output coordinates in angstroms (scale by  1.889725989 to convert to a.u.)

  No.       Tag          Charge          X              Y              Z
 ---- ---------------- ---------- -------------- -------------- --------------
    1 H                    1.0000     0.00000000     0.00000000    -0.36774042
    2 H                    1.0000     0.00000000     0.00000000     0.36774042

      Atomic Mass 
      ----------- 

      H                  1.007825


 Effective nuclear repulsion energy (a.u.)       0.7194983441

            Nuclear Dipole moment (a.u.) 
            ----------------------------
        X                 Y               Z
 ---------------- ---------------- ----------------
     0.0000000000     0.0000000000     0.0000000000


                Final and change from initial internal coordinates
                --------------------------------------------------



                                Z-matrix (autoz)
                                -------- 

 Units are Angstrom for bonds and degrees for angles

      Type          Name      I     J     K     L     M      Value       Change
      ----------- --------  ----- ----- ----- ----- ----- ---------- ----------
    1 Stretch                  1     2                       0.73548    0.09548


 Task  times  cpu:        0.1s     wall:        0.4s


                                NWChem Input Module
                                -------------------


 Summary of allocated global arrays
-----------------------------------
  No active global arrays



                         GA Statistics for process    0
                         ------------------------------

       create   destroy   get      put      acc     scatter   gather  read&inc
calls:  598      598     2765     1538     1066        0        0      531     
number of processes/call 1.03e+00 1.08e+00 1.02e+00 0.00e+00 0.00e+00
bytes total:             8.72e+05 5.14e+05 1.19e+05 0.00e+00 0.00e+00 4.25e+03
bytes remote:            1.21e+04 1.06e+04 1.00e+03 0.00e+00 0.00e+00 0.00e+00
Max memory consumed for GA by this process: 14208 bytes

MA_summarize_allocated_blocks: starting scan ...
MA_summarize_allocated_blocks: scan completed: 0 heap blocks, 0 stack blocks
MA usage statistics:

	allocation statistics:
					      heap	     stack
					      ----	     -----
	current number of blocks	         0	         0
	maximum number of blocks	        18	        28
	current total bytes		         0	         0
	maximum total bytes		     80152	  22509208
	maximum total K-bytes		        81	     22510
	maximum total M-bytes		         1	        23


                                     CITATION
                                     --------
                Please cite the following reference when publishing
                           results obtained with NWChem:

                 M. Valiev, E.J. Bylaska, N. Govind, K. Kowalski,
              T.P. Straatsma, H.J.J. van Dam, D. Wang, J. Nieplocha,
                        E. Apra, T.L. Windus, W.A. de Jong
                 "NWChem: a comprehensive and scalable open-source
                  solution for large scale molecular simulations"
                      Comput. Phys. Commun. 181, 1477 (2010)
                           doi:10.1016/j.cpc.2010.04.018

                                      AUTHORS
                                      -------
          E. Apra, E. J. Bylaska, W. A. de Jong, N. Govind, K. Kowalski,
       T. P. Straatsma, M. Valiev, H. J. J. van Dam, D. Wang, T. L. Windus,
        J. Hammond, J. Autschbach, K. Bhaskaran-Nair, J. Brabec, K. Lopata,
    S. A. Fischer, S. Krishnamoorthy, M. Jacquelin, W. Ma, M. Klemm, O. Villa,
      Y. Chen, V. Anisimov, F. Aquino, S. Hirata, M. T. Hackler, V. Konjkov,
            D. Mejia-Rodriguez, T. Risthaus, M. Malagoli, A. Marenich,
   A. Otero-de-la-Roza, J. Mullin, P. Nichols, R. Peverati, J. Pittner, Y. Zhao,
        P.-D. Fan, A. Fonari, M. J. Williamson, R. J. Harrison, J. R. Rehr,
      M. Dupuis, D. Silverstein, D. M. A. Smith, J. Nieplocha, V. Tipparaju,
    M. Krishnan, B. E. Van Kuiken, A. Vazquez-Mayagoitia, L. Jensen, M. Swart,
      Q. Wu, T. Van Voorhis, A. A. Auer, M. Nooijen, L. D. Crosby, E. Brown,
      G. Cisneros, G. I. Fann, H. Fruchtl, J. Garza, K. Hirao, R. A. Kendall,
      J. A. Nichols, K. Tsemekhman, K. Wolinski, J. Anchell, D. E. Bernholdt,
      P. Borowski, T. Clark, D. Clerc, H. Dachsel, M. J. O. Deegan, K. Dyall,
    D. Elwood, E. Glendening, M. Gutowski, A. C. Hess, J. Jaffe, B. G. Johnson,
     J. Ju, R. Kobayashi, R. Kutteh, Z. Lin, R. Littlefield, X. Long, B. Meng,
      T. Nakajima, S. Niu, L. Pollack, M. Rosing, K. Glaesemann, G. Sandrone,
      M. Stave, H. Taylor, G. Thomas, J. H. van Lenthe, A. T. Wong, Z. Zhang.

 Total times  cpu:        0.1s     wall:        0.5s
