 argument  1 = H2O.nw



============================== echo of input deck ==============================
echo "H2O"
start H2O

scratch_dir /tmp
permanent_dir .

memory total 250 Mb

geometry units angstrom
  symmetry c1
  O -1.32201 1.59105 0.00000
  H -0.35201 1.59105 0.00000
  H -1.64534 0.69834 -0.1985
end

basis "ao basis" cartesian
 H library "6-311G**"
 O library "6-311G**"
end

charge 0

scf
   rhf
    singlet
    direct
    maxiter 100
end

task scf optimize
================================================================================


                                         
                                         


              Northwest Computational Chemistry Package (NWChem) 6.8
              ------------------------------------------------------


                    Environmental Molecular Sciences Laboratory
                       Pacific Northwest National Laboratory
                                Richland, WA 99352

                              Copyright (c) 1994-2017
                       Pacific Northwest National Laboratory
                            Battelle Memorial Institute

             NWChem is an open-source computational chemistry package
                        distributed under the terms of the
                      Educational Community License (ECL) 2.0
             A copy of the license is included with this distribution
                              in the LICENSE.TXT file

                                  ACKNOWLEDGMENT
                                  --------------

            This software and its documentation were developed at the
            EMSL at Pacific Northwest National Laboratory, a multiprogram
            national laboratory, operated for the U.S. Department of Energy
            by Battelle under Contract Number DE-AC05-76RL01830. Support
            for this work was provided by the Department of Energy Office
            of Biological and Environmental Research, Office of Basic
            Energy Sciences, and the Office of Advanced Scientific Computing.


           Job information
           ---------------

    hostname        = yodo.izt.uam.mx
    program         = nwchem
    date            = Sun Oct 25 15:38:07 2020

    compiled        = Sun_Jul_01_22:43:59_2018
    source          = /builddir/build/BUILD/nwchem-6.8.1
    nwchem branch   = 6.8.1
    nwchem revision = v6.8-133-ge032219
    ga revision     = 
    use scalapack   = T
    input           = H2O.nw
    prefix          = H2O.
    data base       = ./H2O.db
    status          = startup
    nproc           =        2
    time left       =     -1s



           Memory information
           ------------------

    heap     =    8191994 doubles =     62.5 Mbytes
    stack    =    8191999 doubles =     62.5 Mbytes
    global   =   16384000 doubles =    125.0 Mbytes (distinct from heap & stack)
    total    =   32767993 doubles =    250.0 Mbytes
    verify   = yes
    hardfail = no 


           Directory information
           ---------------------

  0 permanent = .
  0 scratch   = /tmp




                                NWChem Input Module
                                -------------------



 Scaling coordinates for geometry "geometry" by  1.889725989
 (inverse scale =  0.529177249)

 Turning off AUTOSYM since
 SYMMETRY directive was detected!


          ------
          auto-z
          ------


                             Geometry "geometry" -> ""
                             -------------------------

 Output coordinates in angstroms (scale by  1.889725989 to convert to a.u.)

  No.       Tag          Charge          X              Y              Z
 ---- ---------------- ---------- -------------- -------------- --------------
    1 O                    8.0000    -0.06466700     0.08927100     0.01985000
    2 H                    1.0000     0.90533300     0.08927100     0.01985000
    3 H                    1.0000    -0.38799700    -0.80343900    -0.17865000

      Atomic Mass 
      ----------- 

      O                 15.994910
      H                  1.007825


 Effective nuclear repulsion energy (a.u.)       9.0628311742

            Nuclear Dipole moment (a.u.) 
            ----------------------------
        X                 Y               Z
 ---------------- ---------------- ----------------
    -0.0000000000    -0.0000000000     0.0000000000



                                Z-matrix (autoz)
                                -------- 

 Units are Angstrom for bonds and degrees for angles

      Type          Name      I     J     K     L     M      Value
      ----------- --------  ----- ----- ----- ----- ----- ----------
    1 Stretch                  1     2                       0.97000
    2 Stretch                  1     3                       0.96999
    3 Bend                     2     1     3               109.47127


            XYZ format geometry
            -------------------
     3
 geometry
 O                    -0.06466700     0.08927100     0.01985000
 H                     0.90533300     0.08927100     0.01985000
 H                    -0.38799700    -0.80343900    -0.17865000

 ==============================================================================
                                internuclear distances
 ------------------------------------------------------------------------------
       center one      |      center two      | atomic units |  angstroms
 ------------------------------------------------------------------------------
    2 H                |   1 O                |     1.83303  |     0.97000
    3 H                |   1 O                |     1.83301  |     0.96999
 ------------------------------------------------------------------------------
                         number of included internuclear distances:          2
 ==============================================================================



 ==============================================================================
                                 internuclear angles
 ------------------------------------------------------------------------------
        center 1       |       center 2       |       center 3       |  degrees
 ------------------------------------------------------------------------------
    2 H                |   1 O                |   3 H                |   109.47
 ------------------------------------------------------------------------------
                            number of included internuclear angles:          1
 ==============================================================================



  library name resolved from: environment
  library file name is: </usr/share/nwchem/libraries/>
  
                      Basis "ao basis" -> "" (cartesian)
                      -----
  H (Hydrogen)
  ------------
            Exponent  Coefficients 
       -------------- ---------------------------------------------------------
  1 S  3.38650000E+01  0.025494
  1 S  5.09479000E+00  0.190373
  1 S  1.15879000E+00  0.852161

  2 S  3.25840000E-01  1.000000

  3 S  1.02741000E-01  1.000000

  4 P  7.50000000E-01  1.000000

  O (Oxygen)
  ----------
            Exponent  Coefficients 
       -------------- ---------------------------------------------------------
  1 S  8.58850000E+03  0.001895
  1 S  1.29723000E+03  0.014386
  1 S  2.99296000E+02  0.070732
  1 S  8.73771000E+01  0.240001
  1 S  2.56789000E+01  0.594797
  1 S  3.74004000E+00  0.280802

  2 S  4.21175000E+01  0.113889
  2 S  9.62837000E+00  0.920811
  2 S  2.85332000E+00 -0.003274

  3 P  4.21175000E+01  0.036511
  3 P  9.62837000E+00  0.237153
  3 P  2.85332000E+00  0.819702

  4 S  9.05661000E-01  1.000000

  5 P  9.05661000E-01  1.000000

  6 S  2.55611000E-01  1.000000

  7 P  2.55611000E-01  1.000000

  8 D  1.29200000E+00  1.000000



 Summary of "ao basis" -> "" (cartesian)
 ------------------------------------------------------------------------------
       Tag                 Description            Shells   Functions and Types
 ---------------- ------------------------------  ------  ---------------------
 H                          6-311G**                 4        6   3s1p
 O                          6-311G**                 8       19   4s3p1d




                           NWChem Geometry Optimization
                           ----------------------------


 maximum gradient threshold         (gmax) =   0.000450
 rms gradient threshold             (grms) =   0.000300
 maximum cartesian step threshold   (xmax) =   0.001800
 rms cartesian step threshold       (xrms) =   0.001200
 fixed trust radius                (trust) =   0.300000
 maximum step size to saddle      (sadstp) =   0.100000
 energy precision                  (eprec) =   1.0D-07
 maximum number of steps          (nptopt) =   20
 initial hessian option           (inhess) =    0
 line search option               (linopt) =    1
 hessian update option            (modupd) =    1
 saddle point option              (modsad) =    0
 initial eigen-mode to follow     (moddir) =    0
 initial variable to follow       (vardir) =    0
 follow first negative mode     (firstneg) =    T
 apply conjugacy                    (opcg) =    F
 source of zmatrix                         =   autoz   


          -------------------
          Energy Minimization
          -------------------


 Names of Z-matrix variables 
    1              2              3         

 Variables with the same non-blank name are constrained to be equal


 Using old Hessian from previous optimization

          --------
          Step   0
          --------


                         Geometry "geometry" -> "geometry"
                         ---------------------------------

 Output coordinates in angstroms (scale by  1.889725989 to convert to a.u.)

  No.       Tag          Charge          X              Y              Z
 ---- ---------------- ---------- -------------- -------------- --------------
    1 O                    8.0000    -0.06466700     0.08927100     0.01985000
    2 H                    1.0000     0.90533300     0.08927100     0.01985000
    3 H                    1.0000    -0.38799700    -0.80343900    -0.17865000

      Atomic Mass 
      ----------- 

      O                 15.994910
      H                  1.007825


 Effective nuclear repulsion energy (a.u.)       9.0628311742

            Nuclear Dipole moment (a.u.) 
            ----------------------------
        X                 Y               Z
 ---------------- ---------------- ----------------
    -0.0000000000    -0.0000000000     0.0000000000

                                 NWChem SCF Module
                                 -----------------



  ao basis        = "ao basis"
  functions       =    31
  atoms           =     3
  closed shells   =     5
  open shells     =     0
  charge          =   0.00
  wavefunction    = RHF 
  input vectors   = atomic
  output vectors  = ./H2O.movecs
  use symmetry    = F
  symmetry adapt  = F


 Summary of "ao basis" -> "ao basis" (cartesian)
 ------------------------------------------------------------------------------
       Tag                 Description            Shells   Functions and Types
 ---------------- ------------------------------  ------  ---------------------
 H                          6-311G**                 4        6   3s1p
 O                          6-311G**                 8       19   4s3p1d



 Forming initial guess at       0.1s


      Superposition of Atomic Density Guess
      -------------------------------------

 Sum of atomic energies:         -75.77574266

      Non-variational initial energy
      ------------------------------

 Total energy =     -75.909692
 1-e energy   =    -121.559136
 2-e energy   =      36.586613
 HOMO         =      -0.471091
 LUMO         =       0.068284


 Starting SCF solution at       0.2s



 ----------------------------------------------
         Quadratically convergent ROHF

 Convergence threshold     :          1.000E-04
 Maximum no. of iterations :          100
 Final Fock-matrix accuracy:          1.000E-07
 ----------------------------------------------


              iter       energy          gnorm     gmax       time
             ----- ------------------- --------- --------- --------
                 1      -76.0094174413  8.57D-01  3.21D-01      0.1
                 2      -76.0422840949  2.05D-01  8.00D-02      0.1
                 3      -76.0446905355  1.66D-02  7.29D-03      0.2
                 4      -76.0447118894  2.72D-04  9.38D-05      0.3
                 5      -76.0447118949  3.84D-06  1.73D-06      0.4


       Final RHF  results 
       ------------------ 

         Total SCF energy =    -76.044711894950
      One-electron energy =   -122.933390388345
      Two-electron energy =     37.825847319227
 Nuclear repulsion energy =      9.062831174169

        Time for solution =      0.3s


             Final eigenvalues
             -----------------

              1      
    1  -20.5447
    2   -1.3311
    3   -0.7085
    4   -0.5596
    5   -0.4970
    6    0.1482
    7    0.2149
    8    0.5706
    9    0.5904
   10    1.0001
   11    1.0051
   12    1.1050
   13    1.2392
   14    1.4969
   15    1.5605

                       ROHF Final Molecular Orbital Analysis
                       -------------------------------------

 Vector    2  Occ=2.000000D+00  E=-1.331082D+00
              MO Center=  2.7D-02, -3.8D-02, -8.4D-03, r^2= 5.1D-01
   Bfn.  Coefficient  Atom+Function         Bfn.  Coefficient  Atom+Function  
  ----- ------------  ---------------      ----- ------------  ---------------
     6      0.540973  1 O  s                 10      0.382165  1 O  s          
     2     -0.189706  1 O  s          

 Vector    3  Occ=2.000000D+00  E=-7.084763D-01
              MO Center=  5.7D-02, -7.9D-02, -1.8D-02, r^2= 7.8D-01
   Bfn.  Coefficient  Atom+Function         Bfn.  Coefficient  Atom+Function  
  ----- ------------  ---------------      ----- ------------  ---------------
     7      0.281702  1 O  px                21      0.213358  2 H  s          
    27     -0.213359  3 H  s                  8      0.194449  1 O  py         
     3      0.183034  1 O  px                11      0.173480  1 O  px         

 Vector    4  Occ=2.000000D+00  E=-5.595859D-01
              MO Center= -9.4D-02,  1.3D-01,  2.9D-02, r^2= 6.9D-01
   Bfn.  Coefficient  Atom+Function         Bfn.  Coefficient  Atom+Function  
  ----- ------------  ---------------      ----- ------------  ---------------
    10      0.314738  1 O  s                  8      0.303949  1 O  py         
    12      0.283292  1 O  py                 7     -0.220176  1 O  px         
     4      0.204299  1 O  py                11     -0.205212  1 O  px         
     6      0.191033  1 O  s          

 Vector    5  Occ=2.000000D+00  E=-4.969772D-01
              MO Center= -5.2D-02,  7.2D-02,  1.6D-02, r^2= 6.1D-01
   Bfn.  Coefficient  Atom+Function         Bfn.  Coefficient  Atom+Function  
  ----- ------------  ---------------      ----- ------------  ---------------
    13      0.457143  1 O  pz                 9      0.426283  1 O  pz         
     5      0.285163  1 O  pz         

 Vector    6  Occ=0.000000D+00  E= 1.482135D-01
              MO Center=  3.7D-01, -5.1D-01, -1.1D-01, r^2= 3.5D+00
   Bfn.  Coefficient  Atom+Function         Bfn.  Coefficient  Atom+Function  
  ----- ------------  ---------------      ----- ------------  ---------------
    10      0.894854  1 O  s                 22     -0.844718  2 H  s          
    28     -0.844688  3 H  s                 12     -0.175950  1 O  py         

 Vector    7  Occ=0.000000D+00  E= 2.149263D-01
              MO Center=  3.4D-01, -4.6D-01, -1.0D-01, r^2= 4.5D+00
   Bfn.  Coefficient  Atom+Function         Bfn.  Coefficient  Atom+Function  
  ----- ------------  ---------------      ----- ------------  ---------------
    22      1.505987  2 H  s                 28     -1.506016  3 H  s          
    11     -0.410758  1 O  px                12     -0.283523  1 O  py         

 Vector    8  Occ=0.000000D+00  E= 5.706338D-01
              MO Center=  5.1D-02, -7.0D-02, -1.6D-02, r^2= 2.1D+00
   Bfn.  Coefficient  Atom+Function         Bfn.  Coefficient  Atom+Function  
  ----- ------------  ---------------      ----- ------------  ---------------
    21      1.454613  2 H  s                 27     -1.454019  3 H  s          
    11     -0.922057  1 O  px                22     -0.750513  2 H  s          
    28      0.750268  3 H  s                 12     -0.636262  1 O  py         
     7     -0.154235  1 O  px         

 Vector    9  Occ=0.000000D+00  E= 5.904229D-01
              MO Center=  2.7D-01, -3.7D-01, -8.3D-02, r^2= 2.1D+00
   Bfn.  Coefficient  Atom+Function         Bfn.  Coefficient  Atom+Function  
  ----- ------------  ---------------      ----- ------------  ---------------
    21      1.676044  2 H  s                 27      1.676624  3 H  s          
    10     -1.194282  1 O  s                 12      0.729441  1 O  py         
    22     -0.619160  2 H  s                 28     -0.619421  3 H  s          
    11     -0.528100  1 O  px                13      0.162196  1 O  pz         

 Vector   10  Occ=0.000000D+00  E= 1.000071D+00
              MO Center= -1.8D-01,  2.5D-01,  5.5D-02, r^2= 1.4D+00
   Bfn.  Coefficient  Atom+Function         Bfn.  Coefficient  Atom+Function  
  ----- ------------  ---------------      ----- ------------  ---------------
    12      1.171679  1 O  py                11     -0.848729  1 O  px         
    10     -0.736761  1 O  s                  8     -0.598797  1 O  py         
    21      0.485288  2 H  s                 27      0.485286  3 H  s          
     7      0.433752  1 O  px                13      0.260530  1 O  pz         
     4     -0.188145  1 O  py                23     -0.172162  2 H  px         

 Vector   11  Occ=0.000000D+00  E= 1.005137D+00
              MO Center= -6.8D-02,  9.5D-02,  2.1D-02, r^2= 1.4D+00
   Bfn.  Coefficient  Atom+Function         Bfn.  Coefficient  Atom+Function  
  ----- ------------  ---------------      ----- ------------  ---------------
    13      1.119290  1 O  pz                 9     -0.817945  1 O  pz         
    12     -0.248881  1 O  py                 5     -0.234780  1 O  pz         
     8      0.181875  1 O  py         

 Vector   12  Occ=0.000000D+00  E= 1.104959D+00
              MO Center= -7.5D-02,  1.0D-01,  2.3D-02, r^2= 1.9D+00
   Bfn.  Coefficient  Atom+Function         Bfn.  Coefficient  Atom+Function  
  ----- ------------  ---------------      ----- ------------  ---------------
    11      1.493455  1 O  px                12      1.030837  1 O  py         
    22     -0.739169  2 H  s                 28      0.739176  3 H  s          
     7     -0.575656  1 O  px                 8     -0.397339  1 O  py         
    21     -0.387277  2 H  s                 27      0.387251  3 H  s          
    23      0.234537  2 H  px                13      0.229213  1 O  pz         

 Vector   13  Occ=0.000000D+00  E= 1.239188D+00
              MO Center=  4.3D-02, -5.9D-02, -1.3D-02, r^2= 1.6D+00
   Bfn.  Coefficient  Atom+Function         Bfn.  Coefficient  Atom+Function  
  ----- ------------  ---------------      ----- ------------  ---------------
    10      3.197812  1 O  s                  6     -1.299467  1 O  s          
    21     -0.759751  2 H  s                 27     -0.759765  3 H  s          
    12     -0.468323  1 O  py                22     -0.383491  2 H  s          
    28     -0.383513  3 H  s                 11      0.339229  1 O  px         
    30     -0.288400  3 H  py                23      0.268779  2 H  px         

 Vector   14  Occ=0.000000D+00  E= 1.496937D+00
              MO Center=  2.4D-01, -3.3D-01, -7.3D-02, r^2= 1.1D+00
   Bfn.  Coefficient  Atom+Function         Bfn.  Coefficient  Atom+Function  
  ----- ------------  ---------------      ----- ------------  ---------------
    25      0.668377  2 H  pz                31     -0.668367  3 H  pz         
    16      0.172643  1 O  dxz        

 Vector   15  Occ=0.000000D+00  E= 1.560523D+00
              MO Center=  1.6D-01, -2.2D-01, -4.9D-02, r^2= 1.3D+00
   Bfn.  Coefficient  Atom+Function         Bfn.  Coefficient  Atom+Function  
  ----- ------------  ---------------      ----- ------------  ---------------
    10      1.633375  1 O  s                 21     -0.991469  2 H  s          
    27     -0.991494  3 H  s                 12     -0.916099  1 O  py         
    29     -0.713927  3 H  px                24      0.705253  2 H  py         
    11      0.663582  1 O  px                 6     -0.435422  1 O  s          
    15      0.228601  1 O  dxy               13     -0.203701  1 O  pz         


 center of mass
 --------------
 x =  -0.05382128 y =   0.07429878 z =   0.01652083

 moments of inertia (a.u.)
 ------------------
           2.841540213081          -1.155078303098          -0.256839335467
          -1.155078303098           3.812210549339          -0.602067631438
          -0.256839335467          -0.602067631438           6.386003285993

  Mulliken analysis of the total density
  --------------------------------------

    Atom       Charge   Shell Charges
 -----------   ------   -------------------------------------------------------
    1 O    8     8.52   1.08  0.91  0.94  0.98  2.08  0.80  1.72  0.01
    2 H    1     0.74   0.26  0.38  0.03  0.07
    3 H    1     0.74   0.26  0.38  0.03  0.07

       Multipole analysis of the density wrt the origin
       ------------------------------------------------

     L   x y z        total         open         nuclear
     -   - - -        -----         ----         -------
     0   0 0 0     -0.000000      0.000000     10.000000

     1   1 0 0      0.477068      0.000000     -0.000000
     1   0 1 0     -0.658585      0.000000     -0.000000
     1   0 0 1     -0.146441      0.000000      0.000000

     2   2 0 0     -3.449906      0.000000      3.584006
     2   1 1 0      0.772414      0.000000      1.236905
     2   1 0 1      0.171751      0.000000      0.275034
     2   0 2 0     -4.072975      0.000000      2.561303
     2   0 1 1      0.285676      0.000000      0.569523
     2   0 0 2     -5.294217      0.000000      0.126637

                              NWChem Gradients Module
                              -----------------------



  wavefunction    =   RHF     



                         RHF ENERGY GRADIENTS

    atom               coordinates                        gradient
                 x          y          z           x          y          z
   1 O      -0.122203   0.168698   0.037511   -0.014423   0.019895   0.004424
   2 H       1.710831   0.168698   0.037511    0.032871   0.007760   0.001725
   3 H      -0.733208  -1.518280  -0.337600   -0.018448  -0.027654  -0.006149

                 ----------------------------------------
                 |  Time  |  1-e(secs)   |  2-e(secs)   |
                 ----------------------------------------
                 |  CPU   |       0.00   |       0.07   |
                 ----------------------------------------
                 |  WALL  |       0.00   |       0.11   |
                 ----------------------------------------

@ Step       Energy      Delta E   Gmax     Grms     Xrms     Xmax   Walltime
@ ---- ---------------- -------- -------- -------- -------- -------- --------
@    0     -76.04471189  0.0D+00  0.03287  0.02720  0.00000  0.00000      0.7
                                                                    



                                Z-matrix (autoz)
                                -------- 

 Units are Angstrom for bonds and degrees for angles

      Type          Name      I     J     K     L     M      Value     Gradient
      ----------- --------  ----- ----- ----- ----- ----- ---------- ----------
    1 Stretch                  1     2                       0.97000    0.03287
    2 Stretch                  1     3                       0.96999    0.03286
    3 Bend                     2     1     3               109.47127    0.00771

                                 NWChem SCF Module
                                 -----------------



  ao basis        = "ao basis"
  functions       =    31
  atoms           =     3
  closed shells   =     5
  open shells     =     0
  charge          =   0.00
  wavefunction    = RHF 
  input vectors   = ./H2O.movecs
  output vectors  = ./H2O.movecs
  use symmetry    = F
  symmetry adapt  = F


 Summary of "ao basis" -> "ao basis" (cartesian)
 ------------------------------------------------------------------------------
       Tag                 Description            Shells   Functions and Types
 ---------------- ------------------------------  ------  ---------------------
 H                          6-311G**                 4        6   3s1p
 O                          6-311G**                 8       19   4s3p1d



 Forming initial guess at       0.8s


 Loading old vectors from job with title :




 Starting SCF solution at       0.8s



 ----------------------------------------------
         Quadratically convergent ROHF

 Convergence threshold     :          1.000E-04
 Maximum no. of iterations :          100
 Final Fock-matrix accuracy:          1.000E-07
 ----------------------------------------------


              iter       energy          gnorm     gmax       time
             ----- ------------------- --------- --------- --------
                 1      -76.0463580807  1.27D-01  4.71D-02      0.5
                 2      -76.0470740786  6.57D-03  2.81D-03      0.6
                 3      -76.0470784442  2.94D-05  1.32D-05      0.7


       Final RHF  results 
       ------------------ 

         Total SCF energy =    -76.047078444183
      One-electron energy =   -123.466341495640
      Two-electron energy =     38.049596157991
 Nuclear repulsion energy =      9.369666893466

        Time for solution =      0.2s


             Final eigenvalues
             -----------------

              1      
    1  -20.5413
    2   -1.3499
    3   -0.7193
    4   -0.5724
    5   -0.5008
    6    0.1516
    7    0.2187
    8    0.5791
    9    0.6204
   10    0.9964
   11    1.0030
   12    1.1114
   13    1.2418
   14    1.4990
   15    1.5149

                       ROHF Final Molecular Orbital Analysis
                       -------------------------------------

 Vector    2  Occ=2.000000D+00  E=-1.349883D+00
              MO Center=  3.3D-02, -4.7D-02, -1.0D-02, r^2= 5.0D-01
   Bfn.  Coefficient  Atom+Function         Bfn.  Coefficient  Atom+Function  
  ----- ------------  ---------------      ----- ------------  ---------------
     6      0.535902  1 O  s                 10      0.370037  1 O  s          
     2     -0.188650  1 O  s          

 Vector    3  Occ=2.000000D+00  E=-7.192670D-01
              MO Center=  5.5D-02, -7.5D-02, -1.7D-02, r^2= 7.5D-01
   Bfn.  Coefficient  Atom+Function         Bfn.  Coefficient  Atom+Function  
  ----- ------------  ---------------      ----- ------------  ---------------
     7      0.284761  1 O  px                21      0.212030  2 H  s          
    27     -0.212099  3 H  s                  8      0.196859  1 O  py         
     3      0.185609  1 O  px                11      0.172102  1 O  px         
    20      0.151571  2 H  s                 26     -0.151677  3 H  s          

 Vector    4  Occ=2.000000D+00  E=-5.723874D-01
              MO Center= -1.0D-01,  1.4D-01,  3.2D-02, r^2= 6.7D-01
   Bfn.  Coefficient  Atom+Function         Bfn.  Coefficient  Atom+Function  
  ----- ------------  ---------------      ----- ------------  ---------------
    10      0.337925  1 O  s                  8      0.302443  1 O  py         
    12      0.271732  1 O  py                 7     -0.219333  1 O  px         
     4      0.203886  1 O  py                 6      0.199453  1 O  s          
    11     -0.197036  1 O  px         

 Vector    5  Occ=2.000000D+00  E=-5.007670D-01
              MO Center= -5.4D-02,  7.4D-02,  1.6D-02, r^2= 6.1D-01
   Bfn.  Coefficient  Atom+Function         Bfn.  Coefficient  Atom+Function  
  ----- ------------  ---------------      ----- ------------  ---------------
    13      0.454734  1 O  pz                 9      0.426217  1 O  pz         
     5      0.284701  1 O  pz         

 Vector    6  Occ=0.000000D+00  E= 1.516213D-01
              MO Center=  3.9D-01, -5.3D-01, -1.2D-01, r^2= 3.5D+00
   Bfn.  Coefficient  Atom+Function         Bfn.  Coefficient  Atom+Function  
  ----- ------------  ---------------      ----- ------------  ---------------
    10      0.887507  1 O  s                 22     -0.852793  2 H  s          
    28     -0.851352  3 H  s                 12     -0.159551  1 O  py         

 Vector    7  Occ=0.000000D+00  E= 2.186679D-01
              MO Center=  3.4D-01, -4.7D-01, -1.0D-01, r^2= 4.4D+00
   Bfn.  Coefficient  Atom+Function         Bfn.  Coefficient  Atom+Function  
  ----- ------------  ---------------      ----- ------------  ---------------
    22      1.579440  2 H  s                 28     -1.580802  3 H  s          
    11     -0.403919  1 O  px                12     -0.278779  1 O  py         

 Vector    8  Occ=0.000000D+00  E= 5.790601D-01
              MO Center=  4.6D-02, -5.5D-02, -1.2D-02, r^2= 2.0D+00
   Bfn.  Coefficient  Atom+Function         Bfn.  Coefficient  Atom+Function  
  ----- ------------  ---------------      ----- ------------  ---------------
    21      1.501917  2 H  s                 27     -1.486797  3 H  s          
    11     -0.968555  1 O  px                22     -0.720189  2 H  s          
    28      0.714024  3 H  s                 12     -0.663856  1 O  py         
     7     -0.152462  1 O  px         

 Vector    9  Occ=0.000000D+00  E= 6.204456D-01
              MO Center=  2.6D-01, -3.6D-01, -8.0D-02, r^2= 2.0D+00
   Bfn.  Coefficient  Atom+Function         Bfn.  Coefficient  Atom+Function  
  ----- ------------  ---------------      ----- ------------  ---------------
    27      1.860804  3 H  s                 21      1.844942  2 H  s          
    10     -1.493608  1 O  s                 12      0.869871  1 O  py         
    11     -0.621988  1 O  px                28     -0.601348  3 H  s          
    22     -0.595809  2 H  s                 13      0.193422  1 O  pz         

 Vector   10  Occ=0.000000D+00  E= 9.964220D-01
              MO Center= -2.0D-01,  2.8D-01,  6.2D-02, r^2= 1.4D+00
   Bfn.  Coefficient  Atom+Function         Bfn.  Coefficient  Atom+Function  
  ----- ------------  ---------------      ----- ------------  ---------------
    12      1.230505  1 O  py                11     -0.891448  1 O  px         
    10     -0.854442  1 O  s                  8     -0.584251  1 O  py         
    21      0.553249  2 H  s                 27      0.553093  3 H  s          
     7      0.423293  1 O  px                13      0.273609  1 O  pz         
     4     -0.187487  1 O  py                23     -0.181405  2 H  px         

 Vector   11  Occ=0.000000D+00  E= 1.003014D+00
              MO Center= -7.5D-02,  1.0D-01,  2.3D-02, r^2= 1.4D+00
   Bfn.  Coefficient  Atom+Function         Bfn.  Coefficient  Atom+Function  
  ----- ------------  ---------------      ----- ------------  ---------------
    13      1.129405  1 O  pz                 9     -0.815934  1 O  pz         
    12     -0.251128  1 O  py                 5     -0.233636  1 O  pz         
     8      0.181427  1 O  py         

 Vector   12  Occ=0.000000D+00  E= 1.111394D+00
              MO Center= -6.5D-02,  9.0D-02,  2.0D-02, r^2= 1.9D+00
   Bfn.  Coefficient  Atom+Function         Bfn.  Coefficient  Atom+Function  
  ----- ------------  ---------------      ----- ------------  ---------------
    11      1.474807  1 O  px                12      1.017214  1 O  py         
    22     -0.802747  2 H  s                 28      0.803134  3 H  s          
     7     -0.574268  1 O  px                 8     -0.396324  1 O  py         
    21     -0.349737  2 H  s                 27      0.347926  3 H  s          
    23      0.227468  2 H  px                13      0.226184  1 O  pz         

 Vector   13  Occ=0.000000D+00  E= 1.241782D+00
              MO Center=  4.9D-02, -6.8D-02, -1.5D-02, r^2= 1.6D+00
   Bfn.  Coefficient  Atom+Function         Bfn.  Coefficient  Atom+Function  
  ----- ------------  ---------------      ----- ------------  ---------------
    10      3.365381  1 O  s                  6     -1.287883  1 O  s          
    21     -0.858432  2 H  s                 27     -0.859298  3 H  s          
    12     -0.544940  1 O  py                11      0.394062  1 O  px         
    22     -0.386148  2 H  s                 28     -0.387418  3 H  s          
    30     -0.303525  3 H  py                23      0.283637  2 H  px         

 Vector   14  Occ=0.000000D+00  E= 1.498991D+00
              MO Center=  1.6D-01, -2.2D-01, -4.9D-02, r^2= 1.2D+00
   Bfn.  Coefficient  Atom+Function         Bfn.  Coefficient  Atom+Function  
  ----- ------------  ---------------      ----- ------------  ---------------
    10      1.768562  1 O  s                 21     -1.086432  2 H  s          
    27     -1.087960  3 H  s                 12     -0.940760  1 O  py         
    29     -0.729999  3 H  px                24      0.695480  2 H  py         
    11      0.680675  1 O  px                 6     -0.394946  1 O  s          
    13     -0.209184  1 O  pz                15      0.205254  1 O  dxy        

 Vector   15  Occ=0.000000D+00  E= 1.514866D+00
              MO Center=  2.4D-01, -3.3D-01, -7.3D-02, r^2= 1.0D+00
   Bfn.  Coefficient  Atom+Function         Bfn.  Coefficient  Atom+Function  
  ----- ------------  ---------------      ----- ------------  ---------------
    25      0.673402  2 H  pz                31     -0.672795  3 H  pz         
    16      0.167902  1 O  dxz        


 center of mass
 --------------
 x =  -0.05754532 y =   0.07885719 z =   0.01753442

 moments of inertia (a.u.)
 ------------------
           2.710095318514          -0.918679399989          -0.204274468638
          -0.918679399989           3.506737294409          -0.574216990447
          -0.204274468638          -0.574216990447           5.961470686646

  Mulliken analysis of the total density
  --------------------------------------

    Atom       Charge   Shell Charges
 -----------   ------   -------------------------------------------------------
    1 O    8     8.50   1.08  0.91  0.94  0.98  2.09  0.79  1.69  0.02
    2 H    1     0.75   0.27  0.38  0.03  0.07
    3 H    1     0.75   0.27  0.38  0.03  0.07

       Multipole analysis of the density wrt the origin
       ------------------------------------------------

     L   x y z        total         open         nuclear
     -   - - -        -----         ----         -------
     0   0 0 0     -0.000000      0.000000     10.000000

     1   1 0 0      0.484141      0.000000     -0.031327
     1   0 1 0     -0.667840      0.000000      0.038346
     1   0 0 1     -0.148499      0.000000      0.008527

     2   2 0 0     -3.538857      0.000000      3.285694
     2   1 1 0      0.658127      0.000000      1.004113
     2   1 0 1      0.146339      0.000000      0.223271
     2   0 2 0     -4.076581      0.000000      2.434717
     2   0 1 1      0.272619      0.000000      0.541375
     2   0 0 2     -5.242008      0.000000      0.120378

 Line search: 
     step= 1.00 grad=-4.8D-03 hess= 2.4D-03 energy=    -76.047078 mode=accept  
 new step= 1.00                   predicted energy=    -76.047078

          --------
          Step   1
          --------


                         Geometry "geometry" -> "geometry"
                         ---------------------------------

 Output coordinates in angstroms (scale by  1.889725989 to convert to a.u.)

  No.       Tag          Charge          X              Y              Z
 ---- ---------------- ---------- -------------- -------------- --------------
    1 O                    8.0000    -0.06703524     0.09216984     0.02049458
    2 H                    1.0000     0.87185384     0.06380265     0.01418694
    3 H                    1.0000    -0.35214960    -0.78086949    -0.17363152

      Atomic Mass 
      ----------- 

      O                 15.994910
      H                  1.007825


 Effective nuclear repulsion energy (a.u.)       9.3696668935

            Nuclear Dipole moment (a.u.) 
            ----------------------------
        X                 Y               Z
 ---------------- ---------------- ----------------
    -0.0313272893     0.0383461390     0.0085265188

                                 NWChem SCF Module
                                 -----------------



  ao basis        = "ao basis"
  functions       =    31
  atoms           =     3
  closed shells   =     5
  open shells     =     0
  charge          =   0.00
  wavefunction    = RHF 
  input vectors   = ./H2O.movecs
  output vectors  = ./H2O.movecs
  use symmetry    = F
  symmetry adapt  = F


 Summary of "ao basis" -> "ao basis" (cartesian)
 ------------------------------------------------------------------------------
       Tag                 Description            Shells   Functions and Types
 ---------------- ------------------------------  ------  ---------------------
 H                          6-311G**                 4        6   3s1p
 O                          6-311G**                 8       19   4s3p1d



  The SCF is already converged 

         Total SCF energy =    -76.047078444183

                              NWChem Gradients Module
                              -----------------------



  wavefunction    =   RHF     



                         RHF ENERGY GRADIENTS

    atom               coordinates                        gradient
                 x          y          z           x          y          z
   1 O      -0.126678   0.174176   0.038729    0.001650  -0.003311  -0.000736
   2 H       1.647565   0.120570   0.026809   -0.001792   0.000712   0.000158
   3 H      -0.665466  -1.475629  -0.328116    0.000142   0.002599   0.000578

                 ----------------------------------------
                 |  Time  |  1-e(secs)   |  2-e(secs)   |
                 ----------------------------------------
                 |  CPU   |       0.00   |       0.07   |
                 ----------------------------------------
                 |  WALL  |       0.00   |       0.11   |
                 ----------------------------------------

  Step       Energy      Delta E   Gmax     Grms     Xrms     Xmax   Walltime
  ---- ---------------- -------- -------- -------- -------- -------- --------
@    1     -76.04707844 -2.4D-03  0.00258  0.00186  0.03776  0.06705      1.2
                                                                    



                                Z-matrix (autoz)
                                -------- 

 Units are Angstrom for bonds and degrees for angles

      Type          Name      I     J     K     L     M      Value     Gradient
      ----------- --------  ----- ----- ----- ----- ----- ---------- ----------
    1 Stretch                  1     2                       0.93934   -0.00181
    2 Stretch                  1     3                       0.93871   -0.00258
    3 Bend                     2     1     3               105.90899    0.00063

                                 NWChem SCF Module
                                 -----------------



  ao basis        = "ao basis"
  functions       =    31
  atoms           =     3
  closed shells   =     5
  open shells     =     0
  charge          =   0.00
  wavefunction    = RHF 
  input vectors   = ./H2O.movecs
  output vectors  = ./H2O.movecs
  use symmetry    = F
  symmetry adapt  = F


 Summary of "ao basis" -> "ao basis" (cartesian)
 ------------------------------------------------------------------------------
       Tag                 Description            Shells   Functions and Types
 ---------------- ------------------------------  ------  ---------------------
 H                          6-311G**                 4        6   3s1p
 O                          6-311G**                 8       19   4s3p1d



 Forming initial guess at       1.2s


 Loading old vectors from job with title :




 Starting SCF solution at       1.2s



 ----------------------------------------------
         Quadratically convergent ROHF

 Convergence threshold     :          1.000E-04
 Maximum no. of iterations :          100
 Final Fock-matrix accuracy:          1.000E-07
 ----------------------------------------------


              iter       energy          gnorm     gmax       time
             ----- ------------------- --------- --------- --------
                 1      -76.0470845360  1.14D-02  3.80D-03      0.8
                 2      -76.0470919440  3.91D-05  1.76D-05      0.9


       Final RHF  results 
       ------------------ 

         Total SCF energy =    -76.047091944024
      One-electron energy =   -123.427835924280
      Two-electron energy =     38.032055023164
 Nuclear repulsion energy =      9.348688957092

        Time for solution =      0.1s


             Final eigenvalues
             -----------------

              1      
    1  -20.5419
    2   -1.3491
    3   -0.7171
    4   -0.5730
    5   -0.5008
    6    0.1512
    7    0.2185
    8    0.5770
    9    0.6206
   10    0.9966
   11    1.0030
   12    1.1113
   13    1.2419
   14    1.4923
   15    1.5159

                       ROHF Final Molecular Orbital Analysis
                       -------------------------------------

 Vector    2  Occ=2.000000D+00  E=-1.349089D+00
              MO Center=  3.2D-02, -4.4D-02, -9.9D-03, r^2= 5.0D-01
   Bfn.  Coefficient  Atom+Function         Bfn.  Coefficient  Atom+Function  
  ----- ------------  ---------------      ----- ------------  ---------------
     6      0.536116  1 O  s                 10      0.370492  1 O  s          
     2     -0.188655  1 O  s          

 Vector    3  Occ=2.000000D+00  E=-7.171020D-01
              MO Center=  5.4D-02, -7.4D-02, -1.6D-02, r^2= 7.5D-01
   Bfn.  Coefficient  Atom+Function         Bfn.  Coefficient  Atom+Function  
  ----- ------------  ---------------      ----- ------------  ---------------
     7      0.284898  1 O  px                21      0.212253  2 H  s          
    27     -0.212243  3 H  s                  8      0.196612  1 O  py         
     3      0.185666  1 O  px                11      0.172980  1 O  px         
    20      0.151222  2 H  s                 26     -0.151208  3 H  s          

 Vector    4  Occ=2.000000D+00  E=-5.729645D-01
              MO Center= -1.0D-01,  1.4D-01,  3.2D-02, r^2= 6.8D-01
   Bfn.  Coefficient  Atom+Function         Bfn.  Coefficient  Atom+Function  
  ----- ------------  ---------------      ----- ------------  ---------------
    10      0.339098  1 O  s                  8      0.302122  1 O  py         
    12      0.270719  1 O  py                 7     -0.218818  1 O  px         
     4      0.203669  1 O  py                 6      0.200057  1 O  s          
    11     -0.196077  1 O  px         

 Vector    5  Occ=2.000000D+00  E=-5.007655D-01
              MO Center= -5.5D-02,  7.6D-02,  1.7D-02, r^2= 6.1D-01
   Bfn.  Coefficient  Atom+Function         Bfn.  Coefficient  Atom+Function  
  ----- ------------  ---------------      ----- ------------  ---------------
    13      0.454749  1 O  pz                 9      0.426295  1 O  pz         
     5      0.284771  1 O  pz         

 Vector    6  Occ=0.000000D+00  E= 1.512249D-01
              MO Center=  3.9D-01, -5.3D-01, -1.2D-01, r^2= 3.5D+00
   Bfn.  Coefficient  Atom+Function         Bfn.  Coefficient  Atom+Function  
  ----- ------------  ---------------      ----- ------------  ---------------
    10      0.884968  1 O  s                 22     -0.851005  2 H  s          
    28     -0.851200  3 H  s                 12     -0.161092  1 O  py         

 Vector    7  Occ=0.000000D+00  E= 2.185161D-01
              MO Center=  3.4D-01, -4.7D-01, -1.0D-01, r^2= 4.4D+00
   Bfn.  Coefficient  Atom+Function         Bfn.  Coefficient  Atom+Function  
  ----- ------------  ---------------      ----- ------------  ---------------
    22      1.579766  2 H  s                 28     -1.579584  3 H  s          
    11     -0.404718  1 O  px                12     -0.279361  1 O  py         

 Vector    8  Occ=0.000000D+00  E= 5.769514D-01
              MO Center=  4.3D-02, -6.0D-02, -1.3D-02, r^2= 2.0D+00
   Bfn.  Coefficient  Atom+Function         Bfn.  Coefficient  Atom+Function  
  ----- ------------  ---------------      ----- ------------  ---------------
    21      1.484654  2 H  s                 27     -1.486548  3 H  s          
    11     -0.954746  1 O  px                22     -0.722091  2 H  s          
    28      0.722875  3 H  s                 12     -0.659602  1 O  py         
     7     -0.151500  1 O  px         

 Vector    9  Occ=0.000000D+00  E= 6.205578D-01
              MO Center=  2.6D-01, -3.6D-01, -8.0D-02, r^2= 2.0D+00
   Bfn.  Coefficient  Atom+Function         Bfn.  Coefficient  Atom+Function  
  ----- ------------  ---------------      ----- ------------  ---------------
    21      1.850981  2 H  s                 27      1.848982  3 H  s          
    10     -1.479408  1 O  s                 12      0.866341  1 O  py         
    11     -0.628584  1 O  px                22     -0.602212  2 H  s          
    28     -0.601513  3 H  s                 13      0.192637  1 O  pz         

 Vector   10  Occ=0.000000D+00  E= 9.965856D-01
              MO Center= -2.1D-01,  2.8D-01,  6.3D-02, r^2= 1.4D+00
   Bfn.  Coefficient  Atom+Function         Bfn.  Coefficient  Atom+Function  
  ----- ------------  ---------------      ----- ------------  ---------------
    12      1.234742  1 O  py                11     -0.894414  1 O  px         
    10     -0.853819  1 O  s                  8     -0.583771  1 O  py         
    21      0.559039  2 H  s                 27      0.559057  3 H  s          
     7      0.422864  1 O  px                13      0.274553  1 O  pz         
     4     -0.187219  1 O  py                23     -0.182057  2 H  px         

 Vector   11  Occ=0.000000D+00  E= 1.003026D+00
              MO Center= -7.6D-02,  1.0D-01,  2.3D-02, r^2= 1.4D+00
   Bfn.  Coefficient  Atom+Function         Bfn.  Coefficient  Atom+Function  
  ----- ------------  ---------------      ----- ------------  ---------------
    13      1.128703  1 O  pz                 9     -0.816053  1 O  pz         
    12     -0.250974  1 O  py                 5     -0.233711  1 O  pz         
     8      0.181454  1 O  py         

 Vector   12  Occ=0.000000D+00  E= 1.111305D+00
              MO Center= -6.7D-02,  9.3D-02,  2.1D-02, r^2= 1.9D+00
   Bfn.  Coefficient  Atom+Function         Bfn.  Coefficient  Atom+Function  
  ----- ------------  ---------------      ----- ------------  ---------------
    11      1.471463  1 O  px                12      1.015788  1 O  py         
    22     -0.800864  2 H  s                 28      0.800813  3 H  s          
     7     -0.575730  1 O  px                 8     -0.397409  1 O  py         
    21     -0.346924  2 H  s                 27      0.347165  3 H  s          
    13      0.225867  1 O  pz                23      0.226457  2 H  px         

 Vector   13  Occ=0.000000D+00  E= 1.241948D+00
              MO Center=  4.9D-02, -6.8D-02, -1.5D-02, r^2= 1.6D+00
   Bfn.  Coefficient  Atom+Function         Bfn.  Coefficient  Atom+Function  
  ----- ------------  ---------------      ----- ------------  ---------------
    10      3.367367  1 O  s                  6     -1.289927  1 O  s          
    21     -0.865108  2 H  s                 27     -0.864993  3 H  s          
    12     -0.553504  1 O  py                11      0.401039  1 O  px         
    22     -0.383600  2 H  s                 28     -0.383431  3 H  s          
    30     -0.302726  3 H  py                23      0.282723  2 H  px         

 Vector   14  Occ=0.000000D+00  E= 1.492296D+00
              MO Center=  1.6D-01, -2.2D-01, -4.9D-02, r^2= 1.2D+00
   Bfn.  Coefficient  Atom+Function         Bfn.  Coefficient  Atom+Function  
  ----- ------------  ---------------      ----- ------------  ---------------
    10      1.758459  1 O  s                 21     -1.080912  2 H  s          
    27     -1.080712  3 H  s                 12     -0.938757  1 O  py         
    29     -0.729093  3 H  px                24      0.692618  2 H  py         
    11      0.680124  1 O  px                 6     -0.393433  1 O  s          
    13     -0.208739  1 O  pz                15      0.204298  1 O  dxy        

 Vector   15  Occ=0.000000D+00  E= 1.515880D+00
              MO Center=  2.4D-01, -3.3D-01, -7.3D-02, r^2= 1.0D+00
   Bfn.  Coefficient  Atom+Function         Bfn.  Coefficient  Atom+Function  
  ----- ------------  ---------------      ----- ------------  ---------------
    25      0.673220  2 H  pz                31     -0.673303  3 H  pz         
    16      0.168423  1 O  dxz        


 center of mass
 --------------
 x =  -0.05992251 y =   0.08280426 z =   0.01841208

 moments of inertia (a.u.)
 ------------------
           2.731302427431          -0.901436981762          -0.200440502380
          -0.901436981762           3.512482258996          -0.578710368291
          -0.200440502380          -0.578710368291           5.986424495311

  Mulliken analysis of the total density
  --------------------------------------

    Atom       Charge   Shell Charges
 -----------   ------   -------------------------------------------------------
    1 O    8     8.50   1.08  0.91  0.94  0.98  2.09  0.79  1.69  0.02
    2 H    1     0.75   0.27  0.38  0.03  0.07
    3 H    1     0.75   0.27  0.38  0.03  0.07

       Multipole analysis of the density wrt the origin
       ------------------------------------------------

     L   x y z        total         open         nuclear
     -   - - -        -----         ----         -------
     0   0 0 0      0.000000      0.000000     10.000000

     1   1 0 0      0.485942      0.000000     -0.051325
     1   0 1 0     -0.670908      0.000000      0.071550
     1   0 0 1     -0.149181      0.000000      0.015910

     2   2 0 0     -3.546396      0.000000      3.289633
     2   1 1 0      0.651759      0.000000      0.988180
     2   1 0 1      0.144923      0.000000      0.219728
     2   0 2 0     -4.079120      0.000000      2.452988
     2   0 1 1      0.272821      0.000000      0.545438
     2   0 0 2     -5.245410      0.000000      0.121282

 Line search: 
     step= 1.00 grad=-2.9D-05 hess= 1.5D-05 energy=    -76.047092 mode=accept  
 new step= 1.00                   predicted energy=    -76.047092

          --------
          Step   2
          --------


                         Geometry "geometry" -> "geometry"
                         ---------------------------------

 Output coordinates in angstroms (scale by  1.889725989 to convert to a.u.)

  No.       Tag          Charge          X              Y              Z
 ---- ---------------- ---------- -------------- -------------- --------------
    1 O                    8.0000    -0.06854697     0.09467991     0.02105271
    2 H                    1.0000     0.87206876     0.06228801     0.01385015
    3 H                    1.0000    -0.35085279    -0.78186492    -0.17385286

      Atomic Mass 
      ----------- 

      O                 15.994910
      H                  1.007825


 Effective nuclear repulsion energy (a.u.)       9.3486889571

            Nuclear Dipole moment (a.u.) 
            ----------------------------
        X                 Y               Z
 ---------------- ---------------- ----------------
    -0.0513246215     0.0715495213     0.0159095115

                                 NWChem SCF Module
                                 -----------------



  ao basis        = "ao basis"
  functions       =    31
  atoms           =     3
  closed shells   =     5
  open shells     =     0
  charge          =   0.00
  wavefunction    = RHF 
  input vectors   = ./H2O.movecs
  output vectors  = ./H2O.movecs
  use symmetry    = F
  symmetry adapt  = F


 Summary of "ao basis" -> "ao basis" (cartesian)
 ------------------------------------------------------------------------------
       Tag                 Description            Shells   Functions and Types
 ---------------- ------------------------------  ------  ---------------------
 H                          6-311G**                 4        6   3s1p
 O                          6-311G**                 8       19   4s3p1d



  The SCF is already converged 

         Total SCF energy =    -76.047091944024

                              NWChem Gradients Module
                              -----------------------



  wavefunction    =   RHF     



                         RHF ENERGY GRADIENTS

    atom               coordinates                        gradient
                 x          y          z           x          y          z
   1 O      -0.129535   0.178919   0.039784   -0.000082   0.000247   0.000055
   2 H       1.647971   0.117707   0.026173    0.000158  -0.000006  -0.000001
   3 H      -0.663016  -1.477510  -0.328534   -0.000076  -0.000241  -0.000053

                 ----------------------------------------
                 |  Time  |  1-e(secs)   |  2-e(secs)   |
                 ----------------------------------------
                 |  CPU   |       0.00   |       0.07   |
                 ----------------------------------------
                 |  WALL  |       0.00   |       0.11   |
                 ----------------------------------------

  Step       Energy      Delta E   Gmax     Grms     Xrms     Xmax   Walltime
  ---- ---------------- -------- -------- -------- -------- -------- --------
@    2     -76.04709194 -1.3D-05  0.00026  0.00017  0.00237  0.00475      1.5
                                     ok       ok                    



                                Z-matrix (autoz)
                                -------- 

 Units are Angstrom for bonds and degrees for angles

      Type          Name      I     J     K     L     M      Value     Gradient
      ----------- --------  ----- ----- ----- ----- ----- ---------- ----------
    1 Stretch                  1     2                       0.94120    0.00016
    2 Stretch                  1     3                       0.94128    0.00026
    3 Bend                     2     1     3               105.43210   -0.00000

                                 NWChem SCF Module
                                 -----------------



  ao basis        = "ao basis"
  functions       =    31
  atoms           =     3
  closed shells   =     5
  open shells     =     0
  charge          =   0.00
  wavefunction    = RHF 
  input vectors   = ./H2O.movecs
  output vectors  = ./H2O.movecs
  use symmetry    = F
  symmetry adapt  = F


 Summary of "ao basis" -> "ao basis" (cartesian)
 ------------------------------------------------------------------------------
       Tag                 Description            Shells   Functions and Types
 ---------------- ------------------------------  ------  ---------------------
 H                          6-311G**                 4        6   3s1p
 O                          6-311G**                 8       19   4s3p1d



 Forming initial guess at       1.6s


 Loading old vectors from job with title :




 Starting SCF solution at       1.6s



 ----------------------------------------------
         Quadratically convergent ROHF

 Convergence threshold     :          1.000E-04
 Maximum no. of iterations :          100
 Final Fock-matrix accuracy:          1.000E-07
 ----------------------------------------------


              iter       energy          gnorm     gmax       time
             ----- ------------------- --------- --------- --------
                 1      -76.0470919941  7.25D-04  3.11D-04      1.0
                 2      -76.0470920182  2.13D-06  7.44D-07      1.1


       Final RHF  results 
       ------------------ 

         Total SCF energy =    -76.047092018240
      One-electron energy =   -123.430992650999
      Two-electron energy =     38.033434115838
 Nuclear repulsion energy =      9.350466516921

        Time for solution =      0.1s


             Final eigenvalues
             -----------------

              1      
    1  -20.5419
    2   -1.3492
    3   -0.7172
    4   -0.5730
    5   -0.5008
    6    0.1512
    7    0.2185
    8    0.5771
    9    0.6207
   10    0.9966
   11    1.0030
   12    1.1113
   13    1.2420
   14    1.4923
   15    1.5159

                       ROHF Final Molecular Orbital Analysis
                       -------------------------------------

 Vector    2  Occ=2.000000D+00  E=-1.349180D+00
              MO Center=  3.2D-02, -4.5D-02, -9.9D-03, r^2= 5.0D-01
   Bfn.  Coefficient  Atom+Function         Bfn.  Coefficient  Atom+Function  
  ----- ------------  ---------------      ----- ------------  ---------------
     6      0.536091  1 O  s                 10      0.370434  1 O  s          
     2     -0.188651  1 O  s          

 Vector    3  Occ=2.000000D+00  E=-7.172143D-01
              MO Center=  5.4D-02, -7.4D-02, -1.6D-02, r^2= 7.5D-01
   Bfn.  Coefficient  Atom+Function         Bfn.  Coefficient  Atom+Function  
  ----- ------------  ---------------      ----- ------------  ---------------
     7      0.284891  1 O  px                21      0.212240  2 H  s          
    27     -0.212240  3 H  s                  8      0.196649  1 O  py         
     3      0.185664  1 O  px                11      0.172933  1 O  px         
    20      0.151238  2 H  s                 26     -0.151239  3 H  s          

 Vector    4  Occ=2.000000D+00  E=-5.729839D-01
              MO Center= -1.0D-01,  1.4D-01,  3.2D-02, r^2= 6.8D-01
   Bfn.  Coefficient  Atom+Function         Bfn.  Coefficient  Atom+Function  
  ----- ------------  ---------------      ----- ------------  ---------------
    10      0.339137  1 O  s                  8      0.302114  1 O  py         
    12      0.270713  1 O  py                 7     -0.218847  1 O  px         
     4      0.203667  1 O  py                 6      0.200064  1 O  s          
    11     -0.196100  1 O  px         

 Vector    5  Occ=2.000000D+00  E=-5.007786D-01
              MO Center= -5.5D-02,  7.6D-02,  1.7D-02, r^2= 6.1D-01
   Bfn.  Coefficient  Atom+Function         Bfn.  Coefficient  Atom+Function  
  ----- ------------  ---------------      ----- ------------  ---------------
    13      0.454737  1 O  pz                 9      0.426294  1 O  pz         
     5      0.284768  1 O  pz         

 Vector    6  Occ=0.000000D+00  E= 1.512496D-01
              MO Center=  3.9D-01, -5.3D-01, -1.2D-01, r^2= 3.5D+00
   Bfn.  Coefficient  Atom+Function         Bfn.  Coefficient  Atom+Function  
  ----- ------------  ---------------      ----- ------------  ---------------
    10      0.885031  1 O  s                 22     -0.851160  2 H  s          
    28     -0.851154  3 H  s                 12     -0.160958  1 O  py         

 Vector    7  Occ=0.000000D+00  E= 2.185336D-01
              MO Center=  3.4D-01, -4.7D-01, -1.1D-01, r^2= 4.4D+00
   Bfn.  Coefficient  Atom+Function         Bfn.  Coefficient  Atom+Function  
  ----- ------------  ---------------      ----- ------------  ---------------
    22      1.579941  2 H  s                 28     -1.579948  3 H  s          
    11     -0.404667  1 O  px                12     -0.279323  1 O  py         

 Vector    8  Occ=0.000000D+00  E= 5.770567D-01
              MO Center=  4.3D-02, -6.0D-02, -1.3D-02, r^2= 2.0D+00
   Bfn.  Coefficient  Atom+Function         Bfn.  Coefficient  Atom+Function  
  ----- ------------  ---------------      ----- ------------  ---------------
    21      1.486091  2 H  s                 27     -1.486027  3 H  s          
    11     -0.955589  1 O  px                22     -0.722192  2 H  s          
    28      0.722165  3 H  s                 12     -0.659579  1 O  py         
     7     -0.151572  1 O  px         

 Vector    9  Occ=0.000000D+00  E= 6.206511D-01
              MO Center=  2.6D-01, -3.6D-01, -8.0D-02, r^2= 2.0D+00
   Bfn.  Coefficient  Atom+Function         Bfn.  Coefficient  Atom+Function  
  ----- ------------  ---------------      ----- ------------  ---------------
    21      1.850669  2 H  s                 27      1.850738  3 H  s          
    10     -1.480962  1 O  s                 12      0.867286  1 O  py         
    11     -0.628210  1 O  px                22     -0.601669  2 H  s          
    28     -0.601692  3 H  s                 13      0.192847  1 O  pz         

 Vector   10  Occ=0.000000D+00  E= 9.965680D-01
              MO Center= -2.0D-01,  2.8D-01,  6.3D-02, r^2= 1.4D+00
   Bfn.  Coefficient  Atom+Function         Bfn.  Coefficient  Atom+Function  
  ----- ------------  ---------------      ----- ------------  ---------------
    12      1.234776  1 O  py                11     -0.894450  1 O  px         
    10     -0.854230  1 O  s                  8     -0.583737  1 O  py         
    21      0.559049  2 H  s                 27      0.559049  3 H  s          
     7      0.422849  1 O  px                13      0.274560  1 O  pz         
     4     -0.187229  1 O  py                23     -0.182062  2 H  px         

 Vector   11  Occ=0.000000D+00  E= 1.003018D+00
              MO Center= -7.6D-02,  1.0D-01,  2.3D-02, r^2= 1.4D+00
   Bfn.  Coefficient  Atom+Function         Bfn.  Coefficient  Atom+Function  
  ----- ------------  ---------------      ----- ------------  ---------------
    13      1.128763  1 O  pz                 9     -0.816039  1 O  pz         
    12     -0.250987  1 O  py                 5     -0.233703  1 O  pz         
     8      0.181451  1 O  py         

 Vector   12  Occ=0.000000D+00  E= 1.111328D+00
              MO Center= -6.7D-02,  9.3D-02,  2.1D-02, r^2= 1.9D+00
   Bfn.  Coefficient  Atom+Function         Bfn.  Coefficient  Atom+Function  
  ----- ------------  ---------------      ----- ------------  ---------------
    11      1.471556  1 O  px                12      1.015744  1 O  py         
    22     -0.801127  2 H  s                 28      0.801129  3 H  s          
     7     -0.575676  1 O  px                 8     -0.397362  1 O  py         
    21     -0.346985  2 H  s                 27      0.346976  3 H  s          
    13      0.225857  1 O  pz                23      0.226485  2 H  px         

 Vector   13  Occ=0.000000D+00  E= 1.241951D+00
              MO Center=  4.9D-02, -6.8D-02, -1.5D-02, r^2= 1.6D+00
   Bfn.  Coefficient  Atom+Function         Bfn.  Coefficient  Atom+Function  
  ----- ------------  ---------------      ----- ------------  ---------------
    10      3.367890  1 O  s                  6     -1.289814  1 O  s          
    21     -0.865175  2 H  s                 27     -0.865179  3 H  s          
    12     -0.553496  1 O  py                11      0.400940  1 O  px         
    22     -0.383642  2 H  s                 28     -0.383648  3 H  s          
    30     -0.302820  3 H  py                23      0.282789  2 H  px         

 Vector   14  Occ=0.000000D+00  E= 1.492338D+00
              MO Center=  1.6D-01, -2.2D-01, -4.9D-02, r^2= 1.2D+00
   Bfn.  Coefficient  Atom+Function         Bfn.  Coefficient  Atom+Function  
  ----- ------------  ---------------      ----- ------------  ---------------
    10      1.759075  1 O  s                 21     -1.081216  2 H  s          
    27     -1.081224  3 H  s                 12     -0.938864  1 O  py         
    29     -0.729143  3 H  px                24      0.692683  2 H  py         
    11      0.680093  1 O  px                 6     -0.393327  1 O  s          
    13     -0.208763  1 O  pz                15      0.204245  1 O  dxy        

 Vector   15  Occ=0.000000D+00  E= 1.515908D+00
              MO Center=  2.4D-01, -3.3D-01, -7.3D-02, r^2= 1.0D+00
   Bfn.  Coefficient  Atom+Function         Bfn.  Coefficient  Atom+Function  
  ----- ------------  ---------------      ----- ------------  ---------------
    25      0.673275  2 H  pz                31     -0.673272  3 H  pz         
    16      0.168397  1 O  dxz        


 center of mass
 --------------
 x =  -0.05987282 y =   0.08265519 z =   0.01837893

 moments of inertia (a.u.)
 ------------------
           2.729963036131          -0.901282226579          -0.200406091537
          -0.901282226579           3.511450370297          -0.578426577076
          -0.200406091537          -0.578426577076           5.984179421036

  Mulliken analysis of the total density
  --------------------------------------

    Atom       Charge   Shell Charges
 -----------   ------   -------------------------------------------------------
    1 O    8     8.50   1.08  0.91  0.94  0.98  2.09  0.79  1.69  0.02
    2 H    1     0.75   0.27  0.38  0.03  0.07
    3 H    1     0.75   0.27  0.38  0.03  0.07

       Multipole analysis of the density wrt the origin
       ------------------------------------------------

     L   x y z        total         open         nuclear
     -   - - -        -----         ----         -------
     0   0 0 0     -0.000000      0.000000     10.000000

     1   1 0 0      0.485914      0.000000     -0.050907
     1   0 1 0     -0.670795      0.000000      0.070296
     1   0 0 1     -0.149156      0.000000      0.015631

     2   2 0 0     -3.546374      0.000000      3.288687
     2   1 1 0      0.651642      0.000000      0.987993
     2   1 0 1      0.144897      0.000000      0.219687
     2   0 2 0     -4.079057      0.000000      2.451786
     2   0 1 1      0.272765      0.000000      0.545171
     2   0 0 2     -5.245108      0.000000      0.121222

 Line search: 
     step= 1.00 grad=-1.5D-07 hess= 7.6D-08 energy=    -76.047092 mode=accept  
 new step= 1.00                   predicted energy=    -76.047092

          --------
          Step   3
          --------


                         Geometry "geometry" -> "geometry"
                         ---------------------------------

 Output coordinates in angstroms (scale by  1.889725989 to convert to a.u.)

  No.       Tag          Charge          X              Y              Z
 ---- ---------------- ---------- -------------- -------------- --------------
    1 O                    8.0000    -0.06851537     0.09458511     0.02103163
    2 H                    1.0000     0.87196556     0.06226131     0.01384422
    3 H                    1.0000    -0.35078119    -0.78174342    -0.17382584

      Atomic Mass 
      ----------- 

      O                 15.994910
      H                  1.007825


 Effective nuclear repulsion energy (a.u.)       9.3504665169

            Nuclear Dipole moment (a.u.) 
            ----------------------------
        X                 Y               Z
 ---------------- ---------------- ----------------
    -0.0509065581     0.0702955401     0.0156306804

                                 NWChem SCF Module
                                 -----------------



  ao basis        = "ao basis"
  functions       =    31
  atoms           =     3
  closed shells   =     5
  open shells     =     0
  charge          =   0.00
  wavefunction    = RHF 
  input vectors   = ./H2O.movecs
  output vectors  = ./H2O.movecs
  use symmetry    = F
  symmetry adapt  = F


 Summary of "ao basis" -> "ao basis" (cartesian)
 ------------------------------------------------------------------------------
       Tag                 Description            Shells   Functions and Types
 ---------------- ------------------------------  ------  ---------------------
 H                          6-311G**                 4        6   3s1p
 O                          6-311G**                 8       19   4s3p1d



  The SCF is already converged 

         Total SCF energy =    -76.047092018240

                              NWChem Gradients Module
                              -----------------------



  wavefunction    =   RHF     



                         RHF ENERGY GRADIENTS

    atom               coordinates                        gradient
                 x          y          z           x          y          z
   1 O      -0.129475   0.178740   0.039744   -0.000003  -0.000000  -0.000000
   2 H       1.647776   0.117657   0.026162   -0.000001  -0.000003  -0.000001
   3 H      -0.662880  -1.477281  -0.328483    0.000004   0.000003   0.000001

                 ----------------------------------------
                 |  Time  |  1-e(secs)   |  2-e(secs)   |
                 ----------------------------------------
                 |  CPU   |       0.00   |       0.06   |
                 ----------------------------------------
                 |  WALL  |       0.00   |       0.09   |
                 ----------------------------------------

  Step       Energy      Delta E   Gmax     Grms     Xrms     Xmax   Walltime
  ---- ---------------- -------- -------- -------- -------- -------- --------
@    3     -76.04709202 -7.4D-08  0.00000  0.00000  0.00013  0.00023      1.9
                                     ok       ok       ok       ok  



                                Z-matrix (autoz)
                                -------- 

 Units are Angstrom for bonds and degrees for angles

      Type          Name      I     J     K     L     M      Value     Gradient
      ----------- --------  ----- ----- ----- ----- ----- ---------- ----------
    1 Stretch                  1     2                       0.94106   -0.00000
    2 Stretch                  1     3                       0.94106   -0.00000
    3 Bend                     2     1     3               105.43778   -0.00000


      ----------------------
      Optimization converged
      ----------------------


  Step       Energy      Delta E   Gmax     Grms     Xrms     Xmax   Walltime
  ---- ---------------- -------- -------- -------- -------- -------- --------
@    3     -76.04709202 -7.4D-08  0.00000  0.00000  0.00013  0.00023      1.9
                                     ok       ok       ok       ok  



                                Z-matrix (autoz)
                                -------- 

 Units are Angstrom for bonds and degrees for angles

      Type          Name      I     J     K     L     M      Value     Gradient
      ----------- --------  ----- ----- ----- ----- ----- ---------- ----------
    1 Stretch                  1     2                       0.94106   -0.00000
    2 Stretch                  1     3                       0.94106   -0.00000
    3 Bend                     2     1     3               105.43778   -0.00000



                         Geometry "geometry" -> "geometry"
                         ---------------------------------

 Output coordinates in angstroms (scale by  1.889725989 to convert to a.u.)

  No.       Tag          Charge          X              Y              Z
 ---- ---------------- ---------- -------------- -------------- --------------
    1 O                    8.0000    -0.06851537     0.09458511     0.02103163
    2 H                    1.0000     0.87196556     0.06226131     0.01384422
    3 H                    1.0000    -0.35078119    -0.78174342    -0.17382584

      Atomic Mass 
      ----------- 

      O                 15.994910
      H                  1.007825


 Effective nuclear repulsion energy (a.u.)       9.3504665169

            Nuclear Dipole moment (a.u.) 
            ----------------------------
        X                 Y               Z
 ---------------- ---------------- ----------------
    -0.0509065581     0.0702955401     0.0156306804


                Final and change from initial internal coordinates
                --------------------------------------------------



                                Z-matrix (autoz)
                                -------- 

 Units are Angstrom for bonds and degrees for angles

      Type          Name      I     J     K     L     M      Value       Change
      ----------- --------  ----- ----- ----- ----- ----- ---------- ----------
    1 Stretch                  1     2                       0.94106   -0.02894
    2 Stretch                  1     3                       0.94106   -0.02893
    3 Bend                     2     1     3               105.43778   -4.03350

 ==============================================================================
                                internuclear distances
 ------------------------------------------------------------------------------
       center one      |      center two      | atomic units |  angstroms
 ------------------------------------------------------------------------------
    2 H                |   1 O                |     1.77835  |     0.94106
    3 H                |   1 O                |     1.77835  |     0.94106
 ------------------------------------------------------------------------------
                         number of included internuclear distances:          2
 ==============================================================================



 ==============================================================================
                                 internuclear angles
 ------------------------------------------------------------------------------
        center 1       |       center 2       |       center 3       |  degrees
 ------------------------------------------------------------------------------
    2 H                |   1 O                |   3 H                |   105.44
 ------------------------------------------------------------------------------
                            number of included internuclear angles:          1
 ==============================================================================




 Task  times  cpu:        1.2s     wall:        1.8s


                                NWChem Input Module
                                -------------------


 Summary of allocated global arrays
-----------------------------------
  No active global arrays



                         GA Statistics for process    0
                         ------------------------------

       create   destroy   get      put      acc     scatter   gather  read&inc
calls:  703      703     2.29e+04 2951     2826        0        0     1042     
number of processes/call 1.00e+00 1.07e+00 1.02e+00 0.00e+00 0.00e+00
bytes total:             6.31e+06 3.28e+06 9.35e+05 0.00e+00 0.00e+00 8.34e+03
bytes remote:            1.14e+05 1.07e+05 2.34e+04 0.00e+00 0.00e+00 0.00e+00
Max memory consumed for GA by this process: 81672 bytes

MA_summarize_allocated_blocks: starting scan ...
MA_summarize_allocated_blocks: scan completed: 0 heap blocks, 0 stack blocks
MA usage statistics:

	allocation statistics:
					      heap	     stack
					      ----	     -----
	current number of blocks	         0	         0
	maximum number of blocks	        18	        28
	current total bytes		         0	         0
	maximum total bytes		     80152	  22509784
	maximum total K-bytes		        81	     22510
	maximum total M-bytes		         1	        23


                                     CITATION
                                     --------
                Please cite the following reference when publishing
                           results obtained with NWChem:

                 M. Valiev, E.J. Bylaska, N. Govind, K. Kowalski,
              T.P. Straatsma, H.J.J. van Dam, D. Wang, J. Nieplocha,
                        E. Apra, T.L. Windus, W.A. de Jong
                 "NWChem: a comprehensive and scalable open-source
                  solution for large scale molecular simulations"
                      Comput. Phys. Commun. 181, 1477 (2010)
                           doi:10.1016/j.cpc.2010.04.018

                                      AUTHORS
                                      -------
          E. Apra, E. J. Bylaska, W. A. de Jong, N. Govind, K. Kowalski,
       T. P. Straatsma, M. Valiev, H. J. J. van Dam, D. Wang, T. L. Windus,
        J. Hammond, J. Autschbach, K. Bhaskaran-Nair, J. Brabec, K. Lopata,
    S. A. Fischer, S. Krishnamoorthy, M. Jacquelin, W. Ma, M. Klemm, O. Villa,
      Y. Chen, V. Anisimov, F. Aquino, S. Hirata, M. T. Hackler, V. Konjkov,
            D. Mejia-Rodriguez, T. Risthaus, M. Malagoli, A. Marenich,
   A. Otero-de-la-Roza, J. Mullin, P. Nichols, R. Peverati, J. Pittner, Y. Zhao,
        P.-D. Fan, A. Fonari, M. J. Williamson, R. J. Harrison, J. R. Rehr,
      M. Dupuis, D. Silverstein, D. M. A. Smith, J. Nieplocha, V. Tipparaju,
    M. Krishnan, B. E. Van Kuiken, A. Vazquez-Mayagoitia, L. Jensen, M. Swart,
      Q. Wu, T. Van Voorhis, A. A. Auer, M. Nooijen, L. D. Crosby, E. Brown,
      G. Cisneros, G. I. Fann, H. Fruchtl, J. Garza, K. Hirao, R. A. Kendall,
      J. A. Nichols, K. Tsemekhman, K. Wolinski, J. Anchell, D. E. Bernholdt,
      P. Borowski, T. Clark, D. Clerc, H. Dachsel, M. J. O. Deegan, K. Dyall,
    D. Elwood, E. Glendening, M. Gutowski, A. C. Hess, J. Jaffe, B. G. Johnson,
     J. Ju, R. Kobayashi, R. Kutteh, Z. Lin, R. Littlefield, X. Long, B. Meng,
      T. Nakajima, S. Niu, L. Pollack, M. Rosing, K. Glaesemann, G. Sandrone,
      M. Stave, H. Taylor, G. Thomas, J. H. van Lenthe, A. T. Wong, Z. Zhang.

 Total times  cpu:        1.2s     wall:        1.9s
