 argument  1 = Ne_3.nw



============================== echo of input deck ==============================
echo "Ne"
start Ne

scratch_dir /tmp
permanent_dir .

memory total 250 Mb

geometry units angstrom
 symmetry c1
 Ne 0.00 0.00 0.00
end

basis "ao basis" cartesian
 Ne library "6-311G(2df,2pd)"
end

charge 0

scf
  rhf
  singlet
  direct
  maxiter 100
end

task scf energy
================================================================================


                                         
                                         


              Northwest Computational Chemistry Package (NWChem) 6.8
              ------------------------------------------------------


                    Environmental Molecular Sciences Laboratory
                       Pacific Northwest National Laboratory
                                Richland, WA 99352

                              Copyright (c) 1994-2017
                       Pacific Northwest National Laboratory
                            Battelle Memorial Institute

             NWChem is an open-source computational chemistry package
                        distributed under the terms of the
                      Educational Community License (ECL) 2.0
             A copy of the license is included with this distribution
                              in the LICENSE.TXT file

                                  ACKNOWLEDGMENT
                                  --------------

            This software and its documentation were developed at the
            EMSL at Pacific Northwest National Laboratory, a multiprogram
            national laboratory, operated for the U.S. Department of Energy
            by Battelle under Contract Number DE-AC05-76RL01830. Support
            for this work was provided by the Department of Energy Office
            of Biological and Environmental Research, Office of Basic
            Energy Sciences, and the Office of Advanced Scientific Computing.


           Job information
           ---------------

    hostname        = yodo.izt.uam.mx
    program         = nwchem
    date            = Sun Oct 25 11:50:38 2020

    compiled        = Sun_Jul_01_22:43:59_2018
    source          = /builddir/build/BUILD/nwchem-6.8.1
    nwchem branch   = 6.8.1
    nwchem revision = v6.8-133-ge032219
    ga revision     = 
    use scalapack   = T
    input           = Ne_3.nw
    prefix          = Ne.
    data base       = ./Ne.db
    status          = startup
    nproc           =        2
    time left       =     -1s



           Memory information
           ------------------

    heap     =    8192000 doubles =     62.5 Mbytes
    stack    =    8191997 doubles =     62.5 Mbytes
    global   =   16384000 doubles =    125.0 Mbytes (distinct from heap & stack)
    total    =   32767997 doubles =    250.0 Mbytes
    verify   = yes
    hardfail = no 


           Directory information
           ---------------------

  0 permanent = .
  0 scratch   = /tmp




                                NWChem Input Module
                                -------------------



 Scaling coordinates for geometry "geometry" by  1.889725989
 (inverse scale =  0.529177249)



                             Geometry "geometry" -> ""
                             -------------------------

 Output coordinates in angstroms (scale by  1.889725989 to convert to a.u.)

  No.       Tag          Charge          X              Y              Z
 ---- ---------------- ---------- -------------- -------------- --------------
    1 Ne                  10.0000     0.00000000     0.00000000     0.00000000

      Atomic Mass 
      ----------- 

      Ne                19.992440


 Effective nuclear repulsion energy (a.u.)       0.0000000000

            Nuclear Dipole moment (a.u.) 
            ----------------------------
        X                 Y               Z
 ---------------- ---------------- ----------------
     0.0000000000     0.0000000000     0.0000000000


            XYZ format geometry
            -------------------
     1
 geometry
 Ne                    0.00000000     0.00000000     0.00000000

  library name resolved from: environment
  library file name is: </usr/share/nwchem/libraries/>
  
                      Basis "ao basis" -> "" (cartesian)
                      -----
  Ne (Neon)
  ---------
            Exponent  Coefficients 
       -------------- ---------------------------------------------------------
  1 S  1.39957000E+04  0.001833
  1 S  2.11710000E+03  0.013883
  1 S  4.90425000E+02  0.068069
  1 S  1.43833000E+02  0.231328
  1 S  4.19265000E+01  0.585890
  1 S  6.15684000E+00  0.305883

  2 S  6.91211000E+01  0.119149
  2 S  1.58350000E+01  0.917375
  2 S  4.67326000E+00 -0.004058

  3 P  6.91211000E+01  0.035657
  3 P  1.58350000E+01  0.239477
  3 P  4.67326000E+00  0.818461

  4 S  1.45756000E+00  1.000000

  5 P  1.45756000E+00  1.000000

  6 S  3.97057000E-01  1.000000

  7 P  3.97057000E-01  1.000000

  8 D  4.60800000E+00  1.000000

  9 D  1.15200000E+00  1.000000

 10 F  2.50000000E+00  1.000000



 Summary of "ao basis" -> "" (cartesian)
 ------------------------------------------------------------------------------
       Tag                 Description            Shells   Functions and Types
 ---------------- ------------------------------  ------  ---------------------
 Ne                     6-311G(2df,2pd)             10       35   4s3p2d1f


                                 NWChem SCF Module
                                 -----------------



  ao basis        = "ao basis"
  functions       =    35
  atoms           =     1
  closed shells   =     5
  open shells     =     0
  charge          =   0.00
  wavefunction    = RHF 
  input vectors   = atomic
  output vectors  = ./Ne.movecs
  use symmetry    = F
  symmetry adapt  = F


 Summary of "ao basis" -> "ao basis" (cartesian)
 ------------------------------------------------------------------------------
       Tag                 Description            Shells   Functions and Types
 ---------------- ------------------------------  ------  ---------------------
 Ne                     6-311G(2df,2pd)             10       35   4s3p2d1f



 Forming initial guess at       0.1s


      Superposition of Atomic Density Guess
      -------------------------------------

 Sum of atomic energies:        -128.52255306

      Non-variational initial energy
      ------------------------------

 Total energy =    -128.522553
 1-e energy   =    -182.637159
 2-e energy   =      54.114606
 HOMO         =      -0.841533
 LUMO         =       1.024741


 Starting SCF solution at       0.2s



 ----------------------------------------------
         Quadratically convergent ROHF

 Convergence threshold     :          1.000E-04
 Maximum no. of iterations :          100
 Final Fock-matrix accuracy:          1.000E-07
 ----------------------------------------------


              iter       energy          gnorm     gmax       time
             ----- ------------------- --------- --------- --------
                 1     -128.5244594384  2.34D-02  1.71D-02      0.1
                 2     -128.5244725063  3.89D-04  2.87D-04      0.2
                 3     -128.5244725108  5.45D-07  4.33D-07      0.3


       Final RHF  results 
       ------------------ 

         Total SCF energy =   -128.524472510760
      One-electron energy =   -182.647582475215
      Two-electron energy =     54.123109964455
 Nuclear repulsion energy =      0.000000000000

        Time for solution =      0.2s


             Final eigenvalues
             -----------------

              1      
    1  -32.7632
    2   -1.9188
    3   -0.8395
    4   -0.8395
    5   -0.8395
    6    1.0258
    7    1.3947
    8    1.3947
    9    1.3947
   10    2.9418
   11    2.9418
   12    2.9418
   13    2.9418
   14    2.9418
   15    4.7856

                       ROHF Final Molecular Orbital Analysis
                       -------------------------------------

 Vector    2  Occ=2.000000D+00  E=-1.918824D+00
              MO Center= -3.4D-17,  4.3D-17, -5.6D-17, r^2= 2.7D-01
   Bfn.  Coefficient  Atom+Function         Bfn.  Coefficient  Atom+Function  
  ----- ------------  ---------------      ----- ------------  ---------------
     6      0.629042  1 Ne s                 10      0.416479  1 Ne s          
     2     -0.204589  1 Ne s          

 Vector    3  Occ=2.000000D+00  E=-8.395407D-01
              MO Center= -5.5D-17,  8.5D-17,  4.5D-16, r^2= 3.3D-01
   Bfn.  Coefficient  Atom+Function         Bfn.  Coefficient  Atom+Function  
  ----- ------------  ---------------      ----- ------------  ---------------
     9      0.455252  1 Ne pz                13      0.384687  1 Ne pz         
     5      0.304227  1 Ne pz         

 Vector    4  Occ=2.000000D+00  E=-8.395407D-01
              MO Center= -2.9D-16, -3.0D-17, -7.7D-17, r^2= 3.3D-01
   Bfn.  Coefficient  Atom+Function         Bfn.  Coefficient  Atom+Function  
  ----- ------------  ---------------      ----- ------------  ---------------
     7      0.473008  1 Ne px                11      0.399692  1 Ne px         
     3      0.316094  1 Ne px         

 Vector    5  Occ=2.000000D+00  E=-8.395407D-01
              MO Center= -1.4D-17, -1.9D-16, -5.5D-17, r^2= 3.3D-01
   Bfn.  Coefficient  Atom+Function         Bfn.  Coefficient  Atom+Function  
  ----- ------------  ---------------      ----- ------------  ---------------
     8      0.471996  1 Ne py                12      0.398836  1 Ne py         
     4      0.315417  1 Ne py         

 Vector    6  Occ=0.000000D+00  E= 1.025777D+00
              MO Center=  9.0D-16,  7.0D-18, -7.5D-16, r^2= 1.1D+00
   Bfn.  Coefficient  Atom+Function         Bfn.  Coefficient  Atom+Function  
  ----- ------------  ---------------      ----- ------------  ---------------
    10      2.548257  1 Ne s                  6     -1.085954  1 Ne s          
    20     -0.604435  1 Ne dxx               23     -0.604435  1 Ne dyy        
    25     -0.604435  1 Ne dzz        

 Vector    7  Occ=0.000000D+00  E= 1.394731D+00
              MO Center=  3.2D-16,  2.9D-16,  8.7D-17, r^2= 9.2D-01
   Bfn.  Coefficient  Atom+Function         Bfn.  Coefficient  Atom+Function  
  ----- ------------  ---------------      ----- ------------  ---------------
    13     -1.062066  1 Ne pz                 9      1.019318  1 Ne pz         
    11      0.476131  1 Ne px                 7     -0.456966  1 Ne px         
    28     -0.181402  1 Ne fxxz              33     -0.181402  1 Ne fyyz       
    35     -0.181402  1 Ne fzzz              12     -0.157122  1 Ne py         
     8      0.150798  1 Ne py         

 Vector    8  Occ=0.000000D+00  E= 1.394731D+00
              MO Center= -5.0D-16,  7.8D-17, -2.1D-16, r^2= 9.2D-01
   Bfn.  Coefficient  Atom+Function         Bfn.  Coefficient  Atom+Function  
  ----- ------------  ---------------      ----- ------------  ---------------
    11     -0.994240  1 Ne px                 7      0.954222  1 Ne px         
    13     -0.501042  1 Ne pz                 9      0.480875  1 Ne pz         
    12      0.373920  1 Ne py                 8     -0.358869  1 Ne py         
    26     -0.169817  1 Ne fxxx              29     -0.169817  1 Ne fxyy       
    31     -0.169817  1 Ne fxzz       

 Vector    9  Occ=0.000000D+00  E= 1.394731D+00
              MO Center= -1.6D-16, -2.3D-16,  9.2D-17, r^2= 9.2D-01
   Bfn.  Coefficient  Atom+Function         Bfn.  Coefficient  Atom+Function  
  ----- ------------  ---------------      ----- ------------  ---------------
    12     -1.102211  1 Ne py                 8      1.057847  1 Ne py         
    11     -0.405164  1 Ne px                 7      0.388857  1 Ne px         
    27     -0.188259  1 Ne fxxy              32     -0.188259  1 Ne fyyy       
    34     -0.188259  1 Ne fyzz               4      0.153061  1 Ne py         

 Vector   10  Occ=0.000000D+00  E= 2.941772D+00
              MO Center=  6.9D-17, -3.2D-16,  1.4D-16, r^2= 4.2D-01
   Bfn.  Coefficient  Atom+Function         Bfn.  Coefficient  Atom+Function  
  ----- ------------  ---------------      ----- ------------  ---------------
    24      1.117417  1 Ne dyz               22     -0.583846  1 Ne dxz        
    25      0.585102  1 Ne dzz               23     -0.552660  1 Ne dyy        
    21      0.319169  1 Ne dxy        

 Vector   11  Occ=0.000000D+00  E= 2.941772D+00
              MO Center= -2.4D-16, -7.6D-17, -1.2D-16, r^2= 4.2D-01
   Bfn.  Coefficient  Atom+Function         Bfn.  Coefficient  Atom+Function  
  ----- ------------  ---------------      ----- ------------  ---------------
    20      0.796648  1 Ne dxx               22     -0.728792  1 Ne dxz        
    21      0.637562  1 Ne dxy               25     -0.463185  1 Ne dzz        
    24     -0.361428  1 Ne dyz               23     -0.333463  1 Ne dyy        

 Vector   12  Occ=0.000000D+00  E= 2.941772D+00
              MO Center=  2.5D-16, -1.0D-16,  2.5D-16, r^2= 4.2D-01
   Bfn.  Coefficient  Atom+Function         Bfn.  Coefficient  Atom+Function  
  ----- ------------  ---------------      ----- ------------  ---------------
    22      1.074826  1 Ne dxz               21     -0.660092  1 Ne dxy        
    20      0.595047  1 Ne dxx               24      0.494745  1 Ne dyz        
    23     -0.448385  1 Ne dyy        

 Vector   13  Occ=0.000000D+00  E= 2.941772D+00
              MO Center= -3.0D-16,  6.2D-17,  2.1D-17, r^2= 4.2D-01
   Bfn.  Coefficient  Atom+Function         Bfn.  Coefficient  Atom+Function  
  ----- ------------  ---------------      ----- ------------  ---------------
    24      1.003112  1 Ne dyz               21      0.875084  1 Ne dxy        
    23      0.523765  1 Ne dyy               25     -0.506240  1 Ne dzz        
    22      0.393938  1 Ne dxz        

 Vector   14  Occ=0.000000D+00  E= 2.941772D+00
              MO Center= -9.5D-17, -1.2D-16,  2.3D-16, r^2= 4.2D-01
   Bfn.  Coefficient  Atom+Function         Bfn.  Coefficient  Atom+Function  
  ----- ------------  ---------------      ----- ------------  ---------------
    21      1.131007  1 Ne dxy               22      0.898095  1 Ne dxz        
    24     -0.598973  1 Ne dyz               25      0.402080  1 Ne dzz        
    23     -0.323004  1 Ne dyy        

 Vector   15  Occ=0.000000D+00  E= 4.785625D+00
              MO Center=  3.0D-17,  2.4D-16,  3.5D-16, r^2= 5.9D-01
   Bfn.  Coefficient  Atom+Function         Bfn.  Coefficient  Atom+Function  
  ----- ------------  ---------------      ----- ------------  ---------------
    10      2.288952  1 Ne s                 20     -1.426861  1 Ne dxx        
    23     -1.426861  1 Ne dyy               25     -1.426861  1 Ne dzz        
     6      1.236951  1 Ne s                  2     -0.498702  1 Ne s          
    14     -0.200959  1 Ne dxx               17     -0.200959  1 Ne dyy        
    19     -0.200959  1 Ne dzz        


 center of mass
 --------------
 x =   0.00000000 y =   0.00000000 z =   0.00000000

 moments of inertia (a.u.)
 ------------------
           0.000000000000           0.000000000000           0.000000000000
           0.000000000000           0.000000000000           0.000000000000
           0.000000000000           0.000000000000           0.000000000000

  Mulliken analysis of the total density
  --------------------------------------

    Atom       Charge   Shell Charges
 -----------   ------   -------------------------------------------------------
    1 Ne  10    10.00   1.07  0.93  1.37  1.11  2.75  0.75  1.91  0.05  0.10 -0.03

       Multipole analysis of the density wrt the origin
       ------------------------------------------------

     L   x y z        total         open         nuclear
     -   - - -        -----         ----         -------
     0   0 0 0     -0.000000      0.000000     10.000000

     1   1 0 0      0.000000      0.000000      0.000000
     1   0 1 0      0.000000      0.000000      0.000000
     1   0 0 1     -0.000000      0.000000      0.000000

     2   2 0 0     -3.050231      0.000000      0.000000
     2   1 1 0      0.000000      0.000000      0.000000
     2   1 0 1      0.000000      0.000000      0.000000
     2   0 2 0     -3.050231      0.000000      0.000000
     2   0 1 1     -0.000000      0.000000      0.000000
     2   0 0 2     -3.050231      0.000000      0.000000


 Task  times  cpu:        0.3s     wall:        0.5s


                                NWChem Input Module
                                -------------------


 Summary of allocated global arrays
-----------------------------------
  No active global arrays



                         GA Statistics for process    0
                         ------------------------------

       create   destroy   get      put      acc     scatter   gather  read&inc
calls:  151      151     1122      685      640        0        0      155     
number of processes/call 1.33e+00 1.30e+00 1.08e+00 0.00e+00 0.00e+00
bytes total:             1.59e+06 8.67e+05 2.57e+05 0.00e+00 0.00e+00 1.24e+03
bytes remote:            8.73e+04 1.85e+04 1.09e+04 0.00e+00 0.00e+00 0.00e+00
Max memory consumed for GA by this process: 119000 bytes

MA_summarize_allocated_blocks: starting scan ...
MA_summarize_allocated_blocks: scan completed: 0 heap blocks, 0 stack blocks
MA usage statistics:

	allocation statistics:
					      heap	     stack
					      ----	     -----
	current number of blocks	         0	         0
	maximum number of blocks	        16	        14
	current total bytes		         0	         0
	maximum total bytes		     80104	  22509768
	maximum total K-bytes		        81	     22510
	maximum total M-bytes		         1	        23


                                     CITATION
                                     --------
                Please cite the following reference when publishing
                           results obtained with NWChem:

                 M. Valiev, E.J. Bylaska, N. Govind, K. Kowalski,
              T.P. Straatsma, H.J.J. van Dam, D. Wang, J. Nieplocha,
                        E. Apra, T.L. Windus, W.A. de Jong
                 "NWChem: a comprehensive and scalable open-source
                  solution for large scale molecular simulations"
                      Comput. Phys. Commun. 181, 1477 (2010)
                           doi:10.1016/j.cpc.2010.04.018

                                      AUTHORS
                                      -------
          E. Apra, E. J. Bylaska, W. A. de Jong, N. Govind, K. Kowalski,
       T. P. Straatsma, M. Valiev, H. J. J. van Dam, D. Wang, T. L. Windus,
        J. Hammond, J. Autschbach, K. Bhaskaran-Nair, J. Brabec, K. Lopata,
    S. A. Fischer, S. Krishnamoorthy, M. Jacquelin, W. Ma, M. Klemm, O. Villa,
      Y. Chen, V. Anisimov, F. Aquino, S. Hirata, M. T. Hackler, V. Konjkov,
            D. Mejia-Rodriguez, T. Risthaus, M. Malagoli, A. Marenich,
   A. Otero-de-la-Roza, J. Mullin, P. Nichols, R. Peverati, J. Pittner, Y. Zhao,
        P.-D. Fan, A. Fonari, M. J. Williamson, R. J. Harrison, J. R. Rehr,
      M. Dupuis, D. Silverstein, D. M. A. Smith, J. Nieplocha, V. Tipparaju,
    M. Krishnan, B. E. Van Kuiken, A. Vazquez-Mayagoitia, L. Jensen, M. Swart,
      Q. Wu, T. Van Voorhis, A. A. Auer, M. Nooijen, L. D. Crosby, E. Brown,
      G. Cisneros, G. I. Fann, H. Fruchtl, J. Garza, K. Hirao, R. A. Kendall,
      J. A. Nichols, K. Tsemekhman, K. Wolinski, J. Anchell, D. E. Bernholdt,
      P. Borowski, T. Clark, D. Clerc, H. Dachsel, M. J. O. Deegan, K. Dyall,
    D. Elwood, E. Glendening, M. Gutowski, A. C. Hess, J. Jaffe, B. G. Johnson,
     J. Ju, R. Kobayashi, R. Kutteh, Z. Lin, R. Littlefield, X. Long, B. Meng,
      T. Nakajima, S. Niu, L. Pollack, M. Rosing, K. Glaesemann, G. Sandrone,
      M. Stave, H. Taylor, G. Thomas, J. H. van Lenthe, A. T. Wong, Z. Zhang.

 Total times  cpu:        0.3s     wall:        0.6s
