 argument  1 = Ne.nw



============================== echo of input deck ==============================
echo "Ne"
start Ne

scratch_dir /tmp
permanent_dir .

memory total 250 Mb

geometry units angstrom
 symmetry c1
 Ne 0.00 0.00 0.00
end

basis "ao basis" cartesian
 Ne library "6-31G*"
end

charge 0

scf
  rhf
  singlet
  direct
  maxiter 100
end

task scf energy
================================================================================


                                         
                                         


              Northwest Computational Chemistry Package (NWChem) 6.8
              ------------------------------------------------------


                    Environmental Molecular Sciences Laboratory
                       Pacific Northwest National Laboratory
                                Richland, WA 99352

                              Copyright (c) 1994-2017
                       Pacific Northwest National Laboratory
                            Battelle Memorial Institute

             NWChem is an open-source computational chemistry package
                        distributed under the terms of the
                      Educational Community License (ECL) 2.0
             A copy of the license is included with this distribution
                              in the LICENSE.TXT file

                                  ACKNOWLEDGMENT
                                  --------------

            This software and its documentation were developed at the
            EMSL at Pacific Northwest National Laboratory, a multiprogram
            national laboratory, operated for the U.S. Department of Energy
            by Battelle under Contract Number DE-AC05-76RL01830. Support
            for this work was provided by the Department of Energy Office
            of Biological and Environmental Research, Office of Basic
            Energy Sciences, and the Office of Advanced Scientific Computing.


           Job information
           ---------------

    hostname        = yodo.izt.uam.mx
    program         = nwchem
    date            = Sun Oct 25 11:08:48 2020

    compiled        = Sun_Jul_01_22:43:59_2018
    source          = /builddir/build/BUILD/nwchem-6.8.1
    nwchem branch   = 6.8.1
    nwchem revision = v6.8-133-ge032219
    ga revision     = 
    use scalapack   = T
    input           = Ne.nw
    prefix          = Ne.
    data base       = ./Ne.db
    status          = startup
    nproc           =        2
    time left       =     -1s



           Memory information
           ------------------

    heap     =    8191994 doubles =     62.5 Mbytes
    stack    =    8191999 doubles =     62.5 Mbytes
    global   =   16384000 doubles =    125.0 Mbytes (distinct from heap & stack)
    total    =   32767993 doubles =    250.0 Mbytes
    verify   = yes
    hardfail = no 


           Directory information
           ---------------------

  0 permanent = .
  0 scratch   = /tmp




                                NWChem Input Module
                                -------------------



 Scaling coordinates for geometry "geometry" by  1.889725989
 (inverse scale =  0.529177249)



                             Geometry "geometry" -> ""
                             -------------------------

 Output coordinates in angstroms (scale by  1.889725989 to convert to a.u.)

  No.       Tag          Charge          X              Y              Z
 ---- ---------------- ---------- -------------- -------------- --------------
    1 Ne                  10.0000     0.00000000     0.00000000     0.00000000

      Atomic Mass 
      ----------- 

      Ne                19.992440


 Effective nuclear repulsion energy (a.u.)       0.0000000000

            Nuclear Dipole moment (a.u.) 
            ----------------------------
        X                 Y               Z
 ---------------- ---------------- ----------------
     0.0000000000     0.0000000000     0.0000000000


            XYZ format geometry
            -------------------
     1
 geometry
 Ne                    0.00000000     0.00000000     0.00000000

  library name resolved from: environment
  library file name is: </usr/share/nwchem/libraries/>
  
                      Basis "ao basis" -> "" (cartesian)
                      -----
  Ne (Neon)
  ---------
            Exponent  Coefficients 
       -------------- ---------------------------------------------------------
  1 S  8.42585153E+03  0.001884
  1 S  1.26851940E+03  0.014337
  1 S  2.89621414E+02  0.070110
  1 S  8.18590040E+01  0.237373
  1 S  2.62515079E+01  0.473007
  1 S  9.09472051E+00  0.348401

  2 S  2.65321310E+01 -0.107118
  2 S  6.10175501E+00 -0.146164
  2 S  1.69627153E+00  1.127774

  3 P  2.65321310E+01  0.071910
  3 P  6.10175501E+00  0.349513
  3 P  1.69627153E+00  0.719941

  4 S  4.45818700E-01  1.000000

  5 P  4.45818700E-01  1.000000

  6 D  8.00000000E-01  1.000000



 Summary of "ao basis" -> "" (cartesian)
 ------------------------------------------------------------------------------
       Tag                 Description            Shells   Functions and Types
 ---------------- ------------------------------  ------  ---------------------
 Ne                          6-31G*                  6       15   3s2p1d


                                 NWChem SCF Module
                                 -----------------



  ao basis        = "ao basis"
  functions       =    15
  atoms           =     1
  closed shells   =     5
  open shells     =     0
  charge          =   0.00
  wavefunction    = RHF 
  input vectors   = atomic
  output vectors  = ./Ne.movecs
  use symmetry    = F
  symmetry adapt  = F


 Summary of "ao basis" -> "ao basis" (cartesian)
 ------------------------------------------------------------------------------
       Tag                 Description            Shells   Functions and Types
 ---------------- ------------------------------  ------  ---------------------
 Ne                          6-31G*                  6       15   3s2p1d



 Forming initial guess at       0.1s


      Superposition of Atomic Density Guess
      -------------------------------------

 Sum of atomic energies:        -128.47387688

      Non-variational initial energy
      ------------------------------

 Total energy =    -128.473877
 1-e energy   =    -182.622844
 2-e energy   =      54.148967
 HOMO         =      -0.830771
 LUMO         =       1.755799


 Starting SCF solution at       0.1s



 ----------------------------------------------
         Quadratically convergent ROHF

 Convergence threshold     :          1.000E-04
 Maximum no. of iterations :          100
 Final Fock-matrix accuracy:          1.000E-07
 ----------------------------------------------


              iter       energy          gnorm     gmax       time
             ----- ------------------- --------- --------- --------
                 1     -128.4744048798  9.67D-03  9.45D-03      0.1
                 2     -128.4744065199  2.32D-05  2.23D-05      0.1


       Final RHF  results 
       ------------------ 

         Total SCF energy =   -128.474406519876
      One-electron energy =   -182.623886339573
      Two-electron energy =     54.149479819698
 Nuclear repulsion energy =      0.000000000000

        Time for solution =      0.0s


             Final eigenvalues
             -----------------

              1      
    1  -32.7611
    2   -1.9107
    3   -0.8302
    4   -0.8302
    5   -0.8302
    6    1.7562
    7    1.7562
    8    1.7562
    9    1.8940
   10    2.1659
   11    2.1659
   12    2.1659
   13    2.1659
   14    2.1659
   15    5.8178

                       ROHF Final Molecular Orbital Analysis
                       -------------------------------------

 Vector    2  Occ=2.000000D+00  E=-1.910711D+00
              MO Center= -2.0D-18,  3.1D-17, -1.1D-17, r^2= 2.7D-01
   Bfn.  Coefficient  Atom+Function         Bfn.  Coefficient  Atom+Function  
  ----- ------------  ---------------      ----- ------------  ---------------
     2      0.577315  1 Ne s                  6      0.465269  1 Ne s          
     1     -0.239791  1 Ne s          

 Vector    3  Occ=2.000000D+00  E=-8.302281D-01
              MO Center= -2.5D-17, -4.8D-17,  3.6D-17, r^2= 3.3D-01
   Bfn.  Coefficient  Atom+Function         Bfn.  Coefficient  Atom+Function  
  ----- ------------  ---------------      ----- ------------  ---------------
     4      0.615671  1 Ne py                 8      0.409662  1 Ne py         
     5      0.302574  1 Ne pz                 9      0.201330  1 Ne pz         

 Vector    4  Occ=2.000000D+00  E=-8.302281D-01
              MO Center=  5.0D-17, -2.9D-17,  4.7D-17, r^2= 3.3D-01
   Bfn.  Coefficient  Atom+Function         Bfn.  Coefficient  Atom+Function  
  ----- ------------  ---------------      ----- ------------  ---------------
     5      0.588741  1 Ne pz                 9      0.391742  1 Ne pz         
     4     -0.258063  1 Ne py                 3      0.251498  1 Ne px         
     8     -0.171713  1 Ne py                 7      0.167344  1 Ne px         

 Vector    5  Occ=2.000000D+00  E=-8.302281D-01
              MO Center= -1.6D-17, -6.4D-17, -3.4D-17, r^2= 3.3D-01
   Bfn.  Coefficient  Atom+Function         Bfn.  Coefficient  Atom+Function  
  ----- ------------  ---------------      ----- ------------  ---------------
     3      0.638240  1 Ne px                 7      0.424679  1 Ne px         
     5     -0.195697  1 Ne pz                 4      0.175545  1 Ne py         

 Vector    6  Occ=0.000000D+00  E= 1.756241D+00
              MO Center=  1.1D-15, -1.4D-16, -1.3D-15, r^2= 7.1D-01
   Bfn.  Coefficient  Atom+Function         Bfn.  Coefficient  Atom+Function  
  ----- ------------  ---------------      ----- ------------  ---------------
     9      0.934748  1 Ne pz                 5     -0.815335  1 Ne pz         
     8     -0.376157  1 Ne py                 4      0.328104  1 Ne py         
     7     -0.307991  1 Ne px                 3      0.268646  1 Ne px         

 Vector    7  Occ=0.000000D+00  E= 1.756241D+00
              MO Center= -9.6D-16,  1.6D-16,  1.3D-17, r^2= 7.1D-01
   Bfn.  Coefficient  Atom+Function         Bfn.  Coefficient  Atom+Function  
  ----- ------------  ---------------      ----- ------------  ---------------
     7      0.997635  1 Ne px                 3     -0.870189  1 Ne px         
     9      0.338068  1 Ne pz                 5     -0.294880  1 Ne pz         

 Vector    8  Occ=0.000000D+00  E= 1.756241D+00
              MO Center=  1.2D-15,  6.0D-16, -2.6D-16, r^2= 7.1D-01
   Bfn.  Coefficient  Atom+Function         Bfn.  Coefficient  Atom+Function  
  ----- ------------  ---------------      ----- ------------  ---------------
     8      0.983906  1 Ne py                 4     -0.858214  1 Ne py         
     9      0.349375  1 Ne pz                 5     -0.304743  1 Ne pz         

 Vector    9  Occ=0.000000D+00  E= 1.894049D+00
              MO Center=  8.4D-17, -6.8D-16,  1.6D-15, r^2= 7.3D-01
   Bfn.  Coefficient  Atom+Function         Bfn.  Coefficient  Atom+Function  
  ----- ------------  ---------------      ----- ------------  ---------------
     6      3.373278  1 Ne s                  2     -2.175704  1 Ne s          
    10     -0.660267  1 Ne dxx               13     -0.660267  1 Ne dyy        
    15     -0.660267  1 Ne dzz        

 Vector   10  Occ=0.000000D+00  E= 2.165861D+00
              MO Center= -5.1D-17,  5.8D-17,  3.4D-16, r^2= 6.1D-01
   Bfn.  Coefficient  Atom+Function         Bfn.  Coefficient  Atom+Function  
  ----- ------------  ---------------      ----- ------------  ---------------
    14      1.519026  1 Ne dyz               12     -0.755387  1 Ne dxz        
    11      0.345030  1 Ne dxy        

 Vector   11  Occ=0.000000D+00  E= 2.165861D+00
              MO Center= -1.5D-15,  3.0D-16,  2.7D-16, r^2= 6.1D-01
   Bfn.  Coefficient  Atom+Function         Bfn.  Coefficient  Atom+Function  
  ----- ------------  ---------------      ----- ------------  ---------------
    11      1.525552  1 Ne dxy               12      0.785852  1 Ne dxz        

 Vector   12  Occ=0.000000D+00  E= 2.165861D+00
              MO Center= -1.1D-16, -9.5D-17,  1.1D-16, r^2= 6.1D-01
   Bfn.  Coefficient  Atom+Function         Bfn.  Coefficient  Atom+Function  
  ----- ------------  ---------------      ----- ------------  ---------------
    12      1.344402  1 Ne dxz               14      0.826527  1 Ne dyz        
    11     -0.704179  1 Ne dxy        

 Vector   13  Occ=0.000000D+00  E= 2.165861D+00
              MO Center= -5.5D-16, -2.4D-16,  3.0D-16, r^2= 6.1D-01
   Bfn.  Coefficient  Atom+Function         Bfn.  Coefficient  Atom+Function  
  ----- ------------  ---------------      ----- ------------  ---------------
    13      0.964304  1 Ne dyy               10     -0.677381  1 Ne dxx        
    15     -0.286923  1 Ne dzz               11     -0.236394  1 Ne dxy        

 Vector   14  Occ=0.000000D+00  E= 2.165861D+00
              MO Center=  5.8D-16, -1.3D-17, -8.5D-16, r^2= 6.1D-01
   Bfn.  Coefficient  Atom+Function         Bfn.  Coefficient  Atom+Function  
  ----- ------------  ---------------      ----- ------------  ---------------
    15      0.955989  1 Ne dzz               10     -0.726098  1 Ne dxx        
    13     -0.229891  1 Ne dyy        

 Vector   15  Occ=0.000000D+00  E= 5.817834D+00
              MO Center= -4.9D-17,  6.1D-17, -7.5D-17, r^2= 1.6D+00
   Bfn.  Coefficient  Atom+Function         Bfn.  Coefficient  Atom+Function  
  ----- ------------  ---------------      ----- ------------  ---------------
     6     13.604349  1 Ne s                  2     -4.931446  1 Ne s          
    10     -4.670481  1 Ne dxx               13     -4.670481  1 Ne dyy        
    15     -4.670481  1 Ne dzz                1     -0.881221  1 Ne s          


 center of mass
 --------------
 x =   0.00000000 y =   0.00000000 z =   0.00000000

 moments of inertia (a.u.)
 ------------------
           0.000000000000           0.000000000000           0.000000000000
           0.000000000000           0.000000000000           0.000000000000
           0.000000000000           0.000000000000           0.000000000000

  Mulliken analysis of the total density
  --------------------------------------

    Atom       Charge   Shell Charges
 -----------   ------   -------------------------------------------------------
    1 Ne  10    10.00   2.00  1.05  3.80  0.86  2.20  0.10

       Multipole analysis of the density wrt the origin
       ------------------------------------------------

     L   x y z        total         open         nuclear
     -   - - -        -----         ----         -------
     0   0 0 0     -0.000000      0.000000     10.000000

     1   1 0 0     -0.000000      0.000000      0.000000
     1   0 1 0      0.000000      0.000000      0.000000
     1   0 0 1     -0.000000      0.000000      0.000000

     2   2 0 0     -3.008720      0.000000      0.000000
     2   1 1 0      0.000000      0.000000      0.000000
     2   1 0 1     -0.000000      0.000000      0.000000
     2   0 2 0     -3.008720      0.000000      0.000000
     2   0 1 1     -0.000000      0.000000      0.000000
     2   0 0 2     -3.008720      0.000000      0.000000


 Task  times  cpu:        0.0s     wall:        0.1s


                                NWChem Input Module
                                -------------------


 Summary of allocated global arrays
-----------------------------------
  No active global arrays



                         GA Statistics for process    0
                         ------------------------------

       create   destroy   get      put      acc     scatter   gather  read&inc
calls:   90       90      458      323      147        0        0       30     
number of processes/call 1.03e+00 1.08e+00 1.03e+00 0.00e+00 0.00e+00
bytes total:             2.08e+05 1.20e+05 2.92e+04 0.00e+00 0.00e+00 2.40e+02
bytes remote:            4.53e+03 4.03e+03 8.00e+02 0.00e+00 0.00e+00 0.00e+00
Max memory consumed for GA by this process: 21000 bytes

MA_summarize_allocated_blocks: starting scan ...
MA_summarize_allocated_blocks: scan completed: 0 heap blocks, 0 stack blocks
MA usage statistics:

	allocation statistics:
					      heap	     stack
					      ----	     -----
	current number of blocks	         0	         0
	maximum number of blocks	        16	        14
	current total bytes		         0	         0
	maximum total bytes		     80152	  22509336
	maximum total K-bytes		        81	     22510
	maximum total M-bytes		         1	        23


                                     CITATION
                                     --------
                Please cite the following reference when publishing
                           results obtained with NWChem:

                 M. Valiev, E.J. Bylaska, N. Govind, K. Kowalski,
              T.P. Straatsma, H.J.J. van Dam, D. Wang, J. Nieplocha,
                        E. Apra, T.L. Windus, W.A. de Jong
                 "NWChem: a comprehensive and scalable open-source
                  solution for large scale molecular simulations"
                      Comput. Phys. Commun. 181, 1477 (2010)
                           doi:10.1016/j.cpc.2010.04.018

                                      AUTHORS
                                      -------
          E. Apra, E. J. Bylaska, W. A. de Jong, N. Govind, K. Kowalski,
       T. P. Straatsma, M. Valiev, H. J. J. van Dam, D. Wang, T. L. Windus,
        J. Hammond, J. Autschbach, K. Bhaskaran-Nair, J. Brabec, K. Lopata,
    S. A. Fischer, S. Krishnamoorthy, M. Jacquelin, W. Ma, M. Klemm, O. Villa,
      Y. Chen, V. Anisimov, F. Aquino, S. Hirata, M. T. Hackler, V. Konjkov,
            D. Mejia-Rodriguez, T. Risthaus, M. Malagoli, A. Marenich,
   A. Otero-de-la-Roza, J. Mullin, P. Nichols, R. Peverati, J. Pittner, Y. Zhao,
        P.-D. Fan, A. Fonari, M. J. Williamson, R. J. Harrison, J. R. Rehr,
      M. Dupuis, D. Silverstein, D. M. A. Smith, J. Nieplocha, V. Tipparaju,
    M. Krishnan, B. E. Van Kuiken, A. Vazquez-Mayagoitia, L. Jensen, M. Swart,
      Q. Wu, T. Van Voorhis, A. A. Auer, M. Nooijen, L. D. Crosby, E. Brown,
      G. Cisneros, G. I. Fann, H. Fruchtl, J. Garza, K. Hirao, R. A. Kendall,
      J. A. Nichols, K. Tsemekhman, K. Wolinski, J. Anchell, D. E. Bernholdt,
      P. Borowski, T. Clark, D. Clerc, H. Dachsel, M. J. O. Deegan, K. Dyall,
    D. Elwood, E. Glendening, M. Gutowski, A. C. Hess, J. Jaffe, B. G. Johnson,
     J. Ju, R. Kobayashi, R. Kutteh, Z. Lin, R. Littlefield, X. Long, B. Meng,
      T. Nakajima, S. Niu, L. Pollack, M. Rosing, K. Glaesemann, G. Sandrone,
      M. Stave, H. Taylor, G. Thomas, J. H. van Lenthe, A. T. Wong, Z. Zhang.

 Total times  cpu:        0.1s     wall:        0.2s
