 argument  1 = Ne_2.nw



============================== echo of input deck ==============================
echo "Ne"
start Ne

scratch_dir /tmp
permanent_dir .

memory total 250 Mb

geometry units angstrom
 symmetry c1
 Ne 0.00 0.00 0.00
end

basis "ao basis" cartesian
 Ne library "6-311G*"
end

charge 0

scf
  rhf
  singlet
  direct
  maxiter 100
end

task scf energy
================================================================================


                                         
                                         


              Northwest Computational Chemistry Package (NWChem) 6.8
              ------------------------------------------------------


                    Environmental Molecular Sciences Laboratory
                       Pacific Northwest National Laboratory
                                Richland, WA 99352

                              Copyright (c) 1994-2017
                       Pacific Northwest National Laboratory
                            Battelle Memorial Institute

             NWChem is an open-source computational chemistry package
                        distributed under the terms of the
                      Educational Community License (ECL) 2.0
             A copy of the license is included with this distribution
                              in the LICENSE.TXT file

                                  ACKNOWLEDGMENT
                                  --------------

            This software and its documentation were developed at the
            EMSL at Pacific Northwest National Laboratory, a multiprogram
            national laboratory, operated for the U.S. Department of Energy
            by Battelle under Contract Number DE-AC05-76RL01830. Support
            for this work was provided by the Department of Energy Office
            of Biological and Environmental Research, Office of Basic
            Energy Sciences, and the Office of Advanced Scientific Computing.


           Job information
           ---------------

    hostname        = yodo.izt.uam.mx
    program         = nwchem
    date            = Sun Oct 25 11:32:47 2020

    compiled        = Sun_Jul_01_22:43:59_2018
    source          = /builddir/build/BUILD/nwchem-6.8.1
    nwchem branch   = 6.8.1
    nwchem revision = v6.8-133-ge032219
    ga revision     = 
    use scalapack   = T
    input           = Ne_2.nw
    prefix          = Ne.
    data base       = ./Ne.db
    status          = startup
    nproc           =        2
    time left       =     -1s



           Memory information
           ------------------

    heap     =    8192000 doubles =     62.5 Mbytes
    stack    =    8191997 doubles =     62.5 Mbytes
    global   =   16384000 doubles =    125.0 Mbytes (distinct from heap & stack)
    total    =   32767997 doubles =    250.0 Mbytes
    verify   = yes
    hardfail = no 


           Directory information
           ---------------------

  0 permanent = .
  0 scratch   = /tmp




                                NWChem Input Module
                                -------------------



 Scaling coordinates for geometry "geometry" by  1.889725989
 (inverse scale =  0.529177249)



                             Geometry "geometry" -> ""
                             -------------------------

 Output coordinates in angstroms (scale by  1.889725989 to convert to a.u.)

  No.       Tag          Charge          X              Y              Z
 ---- ---------------- ---------- -------------- -------------- --------------
    1 Ne                  10.0000     0.00000000     0.00000000     0.00000000

      Atomic Mass 
      ----------- 

      Ne                19.992440


 Effective nuclear repulsion energy (a.u.)       0.0000000000

            Nuclear Dipole moment (a.u.) 
            ----------------------------
        X                 Y               Z
 ---------------- ---------------- ----------------
     0.0000000000     0.0000000000     0.0000000000


            XYZ format geometry
            -------------------
     1
 geometry
 Ne                    0.00000000     0.00000000     0.00000000

  library name resolved from: environment
  library file name is: </usr/share/nwchem/libraries/>
  
                      Basis "ao basis" -> "" (cartesian)
                      -----
  Ne (Neon)
  ---------
            Exponent  Coefficients 
       -------------- ---------------------------------------------------------
  1 S  1.39957000E+04  0.001833
  1 S  2.11710000E+03  0.013883
  1 S  4.90425000E+02  0.068069
  1 S  1.43833000E+02  0.231328
  1 S  4.19265000E+01  0.585890
  1 S  6.15684000E+00  0.305883

  2 S  6.91211000E+01  0.119149
  2 S  1.58350000E+01  0.917375
  2 S  4.67326000E+00 -0.004058

  3 P  6.91211000E+01  0.035657
  3 P  1.58350000E+01  0.239477
  3 P  4.67326000E+00  0.818461

  4 S  1.45756000E+00  1.000000

  5 P  1.45756000E+00  1.000000

  6 S  3.97057000E-01  1.000000

  7 P  3.97057000E-01  1.000000

  8 D  2.30400000E+00  1.000000



 Summary of "ao basis" -> "" (cartesian)
 ------------------------------------------------------------------------------
       Tag                 Description            Shells   Functions and Types
 ---------------- ------------------------------  ------  ---------------------
 Ne                         6-311G*                  8       19   4s3p1d


                                 NWChem SCF Module
                                 -----------------



  ao basis        = "ao basis"
  functions       =    19
  atoms           =     1
  closed shells   =     5
  open shells     =     0
  charge          =   0.00
  wavefunction    = RHF 
  input vectors   = atomic
  output vectors  = ./Ne.movecs
  use symmetry    = F
  symmetry adapt  = F


 Summary of "ao basis" -> "ao basis" (cartesian)
 ------------------------------------------------------------------------------
       Tag                 Description            Shells   Functions and Types
 ---------------- ------------------------------  ------  ---------------------
 Ne                         6-311G*                  8       19   4s3p1d



 Forming initial guess at       0.1s


      Superposition of Atomic Density Guess
      -------------------------------------

 Sum of atomic energies:        -128.52255306

      Non-variational initial energy
      ------------------------------

 Total energy =    -128.522553
 1-e energy   =    -182.637159
 2-e energy   =      54.114606
 HOMO         =      -0.841527
 LUMO         =       1.409686


 Starting SCF solution at       0.1s



 ----------------------------------------------
         Quadratically convergent ROHF

 Convergence threshold     :          1.000E-04
 Maximum no. of iterations :          100
 Final Fock-matrix accuracy:          1.000E-07
 ----------------------------------------------


              iter       energy          gnorm     gmax       time
             ----- ------------------- --------- --------- --------
                 1     -128.5226681064  7.15D-03  6.12D-03      0.1
                 2     -128.5226687495  3.36D-05  1.92D-05      0.1


       Final RHF  results 
       ------------------ 

         Total SCF energy =   -128.522668749490
      One-electron energy =   -182.638952941814
      Two-electron energy =     54.116284192323
 Nuclear repulsion energy =      0.000000000000

        Time for solution =      0.0s


             Final eigenvalues
             -----------------

              1      
    1  -32.7585
    2   -1.9198
    3   -0.8416
    4   -0.8416
    5   -0.8416
    6    1.4096
    7    1.4096
    8    1.4096
    9    1.5091
   10    5.4109
   11    5.4109
   12    5.4109
   13    5.4109
   14    5.4109
   15    8.0959

                       ROHF Final Molecular Orbital Analysis
                       -------------------------------------

 Vector    2  Occ=2.000000D+00  E=-1.919750D+00
              MO Center= -2.3D-17, -7.5D-17, -7.7D-19, r^2= 2.8D-01
   Bfn.  Coefficient  Atom+Function         Bfn.  Coefficient  Atom+Function  
  ----- ------------  ---------------      ----- ------------  ---------------
     6      0.668919  1 Ne s                 10      0.466616  1 Ne s          
     2     -0.219137  1 Ne s          

 Vector    3  Occ=2.000000D+00  E=-8.416459D-01
              MO Center=  5.2D-17,  2.2D-18,  9.0D-17, r^2= 3.3D-01
   Bfn.  Coefficient  Atom+Function         Bfn.  Coefficient  Atom+Function  
  ----- ------------  ---------------      ----- ------------  ---------------
     9      0.406736  1 Ne pz                13      0.349426  1 Ne pz         
     5      0.276851  1 Ne pz                 7      0.235448  1 Ne px         
    11      0.202273  1 Ne px                 3      0.160261  1 Ne px         

 Vector    4  Occ=2.000000D+00  E=-8.416459D-01
              MO Center=  1.8D-17,  2.6D-17, -3.7D-17, r^2= 3.3D-01
   Bfn.  Coefficient  Atom+Function         Bfn.  Coefficient  Atom+Function  
  ----- ------------  ---------------      ----- ------------  ---------------
     7      0.418357  1 Ne px                11      0.359410  1 Ne px         
     3      0.284761  1 Ne px                 9     -0.209777  1 Ne pz         
    13     -0.180219  1 Ne pz         

 Vector    5  Occ=2.000000D+00  E=-8.416459D-01
              MO Center= -6.2D-18,  8.3D-17,  3.2D-17, r^2= 3.3D-01
   Bfn.  Coefficient  Atom+Function         Bfn.  Coefficient  Atom+Function  
  ----- ------------  ---------------      ----- ------------  ---------------
     8      0.454686  1 Ne py                12      0.390621  1 Ne py         
     4      0.309489  1 Ne py                 9      0.154009  1 Ne pz         

 Vector    6  Occ=0.000000D+00  E= 1.409599D+00
              MO Center= -1.4D-15, -2.7D-15,  1.5D-16, r^2= 9.0D-01
   Bfn.  Coefficient  Atom+Function         Bfn.  Coefficient  Atom+Function  
  ----- ------------  ---------------      ----- ------------  ---------------
    12      1.009441  1 Ne py                 8     -0.671314  1 Ne py         
    11      0.527277  1 Ne px                 7     -0.350658  1 Ne px         
     4     -0.215679  1 Ne py         

 Vector    7  Occ=0.000000D+00  E= 1.409599D+00
              MO Center=  3.4D-17, -5.2D-17, -6.3D-16, r^2= 9.0D-01
   Bfn.  Coefficient  Atom+Function         Bfn.  Coefficient  Atom+Function  
  ----- ------------  ---------------      ----- ------------  ---------------
    13      1.135577  1 Ne pz                 9     -0.755199  1 Ne pz         
     5     -0.242630  1 Ne pz         

 Vector    8  Occ=0.000000D+00  E= 1.409599D+00
              MO Center=  7.1D-15, -3.7D-15,  6.0D-16, r^2= 9.0D-01
   Bfn.  Coefficient  Atom+Function         Bfn.  Coefficient  Atom+Function  
  ----- ------------  ---------------      ----- ------------  ---------------
    11      1.009644  1 Ne px                 7     -0.671449  1 Ne px         
    12     -0.522672  1 Ne py                 8      0.347596  1 Ne py         
     3     -0.215723  1 Ne px         

 Vector    9  Occ=0.000000D+00  E= 1.509115D+00
              MO Center= -6.5D-15,  7.0D-15, -2.2D-16, r^2= 7.5D-01
   Bfn.  Coefficient  Atom+Function         Bfn.  Coefficient  Atom+Function  
  ----- ------------  ---------------      ----- ------------  ---------------
    10      1.502158  1 Ne s                  6     -1.199331  1 Ne s          
     2      0.153506  1 Ne s          

 Vector   10  Occ=0.000000D+00  E= 5.410879D+00
              MO Center= -1.4D-16,  1.3D-16, -9.0D-17, r^2= 2.1D-01
   Bfn.  Coefficient  Atom+Function         Bfn.  Coefficient  Atom+Function  
  ----- ------------  ---------------      ----- ------------  ---------------
    15      1.417164  1 Ne dxy               16     -0.683382  1 Ne dxz        
    18      0.629343  1 Ne dyz               14      0.182472  1 Ne dxx        
    17     -0.175907  1 Ne dyy        

 Vector   11  Occ=0.000000D+00  E= 5.410879D+00
              MO Center= -4.7D-17,  2.7D-17,  6.6D-17, r^2= 2.1D-01
   Bfn.  Coefficient  Atom+Function         Bfn.  Coefficient  Atom+Function  
  ----- ------------  ---------------      ----- ------------  ---------------
    16      1.513125  1 Ne dxz               15      0.724114  1 Ne dxy        
    17      0.222027  1 Ne dyy               18      0.195163  1 Ne dyz        

 Vector   12  Occ=0.000000D+00  E= 5.410879D+00
              MO Center= -5.8D-18,  3.3D-17, -6.3D-18, r^2= 2.1D-01
   Bfn.  Coefficient  Atom+Function         Bfn.  Coefficient  Atom+Function  
  ----- ------------  ---------------      ----- ------------  ---------------
    18      1.517051  1 Ne dyz               15     -0.649333  1 Ne dxy        
    17     -0.267722  1 Ne dyy               16      0.233581  1 Ne dxz        
    19      0.176688  1 Ne dzz        

 Vector   13  Occ=0.000000D+00  E= 5.410879D+00
              MO Center= -9.6D-18, -3.9D-19, -4.8D-17, r^2= 2.1D-01
   Bfn.  Coefficient  Atom+Function         Bfn.  Coefficient  Atom+Function  
  ----- ------------  ---------------      ----- ------------  ---------------
    17      0.855802  1 Ne dyy               19     -0.749349  1 Ne dzz        
    18      0.478772  1 Ne dyz               16     -0.368172  1 Ne dxz        
    15     -0.157229  1 Ne dxy        

 Vector   14  Occ=0.000000D+00  E= 5.410879D+00
              MO Center= -1.1D-17,  2.8D-17, -8.5D-18, r^2= 2.1D-01
   Bfn.  Coefficient  Atom+Function         Bfn.  Coefficient  Atom+Function  
  ----- ------------  ---------------      ----- ------------  ---------------
    14      0.967480  1 Ne dxx               19     -0.627349  1 Ne dzz        
    17     -0.340131  1 Ne dyy               16      0.230936  1 Ne dxz        
    18     -0.187541  1 Ne dyz        

 Vector   15  Occ=0.000000D+00  E= 8.095890D+00
              MO Center=  4.9D-17, -8.4D-17, -8.1D-17, r^2= 2.6D-01
   Bfn.  Coefficient  Atom+Function         Bfn.  Coefficient  Atom+Function  
  ----- ------------  ---------------      ----- ------------  ---------------
     8      0.958205  1 Ne py                 7      0.931971  1 Ne px         
     4     -0.881870  1 Ne py                 3     -0.857726  1 Ne px         
    12     -0.363493  1 Ne py                11     -0.353541  1 Ne px         
     9     -0.207299  1 Ne pz                 5      0.190784  1 Ne pz         


 center of mass
 --------------
 x =   0.00000000 y =   0.00000000 z =   0.00000000

 moments of inertia (a.u.)
 ------------------
           0.000000000000           0.000000000000           0.000000000000
           0.000000000000           0.000000000000           0.000000000000
           0.000000000000           0.000000000000           0.000000000000

  Mulliken analysis of the total density
  --------------------------------------

    Atom       Charge   Shell Charges
 -----------   ------   -------------------------------------------------------
    1 Ne  10    10.00   1.07  0.93  1.38  1.18  2.71  0.84  1.92 -0.01

       Multipole analysis of the density wrt the origin
       ------------------------------------------------

     L   x y z        total         open         nuclear
     -   - - -        -----         ----         -------
     0   0 0 0     -0.000000      0.000000     10.000000

     1   1 0 0     -0.000000      0.000000      0.000000
     1   0 1 0     -0.000000      0.000000      0.000000
     1   0 0 1     -0.000000      0.000000      0.000000

     2   2 0 0     -3.062452      0.000000      0.000000
     2   1 1 0     -0.000000      0.000000      0.000000
     2   1 0 1     -0.000000      0.000000      0.000000
     2   0 2 0     -3.062452      0.000000      0.000000
     2   0 1 1      0.000000      0.000000      0.000000
     2   0 0 2     -3.062452      0.000000      0.000000


 Task  times  cpu:        0.1s     wall:        0.1s


                                NWChem Input Module
                                -------------------


 Summary of allocated global arrays
-----------------------------------
  No active global arrays



                         GA Statistics for process    0
                         ------------------------------

       create   destroy   get      put      acc     scatter   gather  read&inc
calls:   90       90      544      429      175        0        0       41     
number of processes/call 1.02e+00 1.09e+00 1.02e+00 0.00e+00 0.00e+00
bytes total:             3.30e+05 1.92e+05 4.59e+04 0.00e+00 0.00e+00 3.28e+02
bytes remote:            8.62e+03 9.94e+03 1.12e+03 0.00e+00 0.00e+00 0.00e+00
Max memory consumed for GA by this process: 32712 bytes

MA_summarize_allocated_blocks: starting scan ...
MA_summarize_allocated_blocks: scan completed: 0 heap blocks, 0 stack blocks
MA usage statistics:

	allocation statistics:
					      heap	     stack
					      ----	     -----
	current number of blocks	         0	         0
	maximum number of blocks	        16	        14
	current total bytes		         0	         0
	maximum total bytes		     80104	  22509384
	maximum total K-bytes		        81	     22510
	maximum total M-bytes		         1	        23


                                     CITATION
                                     --------
                Please cite the following reference when publishing
                           results obtained with NWChem:

                 M. Valiev, E.J. Bylaska, N. Govind, K. Kowalski,
              T.P. Straatsma, H.J.J. van Dam, D. Wang, J. Nieplocha,
                        E. Apra, T.L. Windus, W.A. de Jong
                 "NWChem: a comprehensive and scalable open-source
                  solution for large scale molecular simulations"
                      Comput. Phys. Commun. 181, 1477 (2010)
                           doi:10.1016/j.cpc.2010.04.018

                                      AUTHORS
                                      -------
          E. Apra, E. J. Bylaska, W. A. de Jong, N. Govind, K. Kowalski,
       T. P. Straatsma, M. Valiev, H. J. J. van Dam, D. Wang, T. L. Windus,
        J. Hammond, J. Autschbach, K. Bhaskaran-Nair, J. Brabec, K. Lopata,
    S. A. Fischer, S. Krishnamoorthy, M. Jacquelin, W. Ma, M. Klemm, O. Villa,
      Y. Chen, V. Anisimov, F. Aquino, S. Hirata, M. T. Hackler, V. Konjkov,
            D. Mejia-Rodriguez, T. Risthaus, M. Malagoli, A. Marenich,
   A. Otero-de-la-Roza, J. Mullin, P. Nichols, R. Peverati, J. Pittner, Y. Zhao,
        P.-D. Fan, A. Fonari, M. J. Williamson, R. J. Harrison, J. R. Rehr,
      M. Dupuis, D. Silverstein, D. M. A. Smith, J. Nieplocha, V. Tipparaju,
    M. Krishnan, B. E. Van Kuiken, A. Vazquez-Mayagoitia, L. Jensen, M. Swart,
      Q. Wu, T. Van Voorhis, A. A. Auer, M. Nooijen, L. D. Crosby, E. Brown,
      G. Cisneros, G. I. Fann, H. Fruchtl, J. Garza, K. Hirao, R. A. Kendall,
      J. A. Nichols, K. Tsemekhman, K. Wolinski, J. Anchell, D. E. Bernholdt,
      P. Borowski, T. Clark, D. Clerc, H. Dachsel, M. J. O. Deegan, K. Dyall,
    D. Elwood, E. Glendening, M. Gutowski, A. C. Hess, J. Jaffe, B. G. Johnson,
     J. Ju, R. Kobayashi, R. Kutteh, Z. Lin, R. Littlefield, X. Long, B. Meng,
      T. Nakajima, S. Niu, L. Pollack, M. Rosing, K. Glaesemann, G. Sandrone,
      M. Stave, H. Taylor, G. Thomas, J. H. van Lenthe, A. T. Wong, Z. Zhang.

 Total times  cpu:        0.1s     wall:        0.2s
